# vtk DataFile Version 2.0
HPC Tutorials: Michael Bader, Kaveh Rahnema, Oliver Meister
ASCII
DATASET RECTILINEAR_GRID
DIMENSIONS 257 257 1
X_COORDINATES 257 float
0
0.005
0.01
0.015
0.02
0.025
0.03
0.035
0.04
0.045
0.05
0.055
0.06
0.065
0.07
0.075
0.08
0.085
0.09
0.095
0.1
0.105
0.11
0.115
0.12
0.125
0.13
0.135
0.14
0.145
0.15
0.155
0.16
0.165
0.17
0.175
0.18
0.185
0.19
0.195
0.2
0.205
0.21
0.215
0.22
0.225
0.23
0.235
0.24
0.245
0.25
0.255
0.26
0.265
0.27
0.275
0.28
0.285
0.29
0.295
0.3
0.305
0.31
0.315
0.32
0.325
0.33
0.335
0.34
0.345
0.35
0.355
0.36
0.365
0.37
0.375
0.38
0.385
0.39
0.395
0.4
0.405
0.41
0.415
0.42
0.425
0.43
0.435
0.44
0.445
0.45
0.455
0.46
0.465
0.47
0.475
0.48
0.485
0.49
0.495
0.5
0.505
0.51
0.515
0.52
0.525
0.53
0.535
0.54
0.545
0.55
0.555
0.56
0.565
0.57
0.575
0.58
0.585
0.59
0.595
0.6
0.605
0.61
0.615
0.62
0.625
0.63
0.635
0.64
0.645
0.65
0.655
0.66
0.665
0.67
0.675
0.68
0.685
0.69
0.695
0.7
0.705
0.71
0.715
0.72
0.725
0.73
0.735
0.74
0.745
0.75
0.755
0.76
0.765
0.77
0.775
0.78
0.785
0.79
0.795
0.8
0.805
0.81
0.815
0.82
0.825
0.83
0.835
0.84
0.845
0.85
0.855
0.86
0.865
0.87
0.875
0.88
0.885
0.89
0.895
0.9
0.905
0.91
0.915
0.92
0.925
0.93
0.935
0.94
0.945
0.95
0.955
0.96
0.965
0.97
0.975
0.98
0.985
0.99
0.995
1
1.005
1.01
1.015
1.02
1.025
1.03
1.035
1.04
1.045
1.05
1.055
1.06
1.065
1.07
1.075
1.08
1.085
1.09
1.095
1.1
1.105
1.11
1.115
1.12
1.125
1.13
1.135
1.14
1.145
1.15
1.155
1.16
1.165
1.17
1.175
1.18
1.185
1.19
1.195
1.2
1.205
1.21
1.215
1.22
1.225
1.23
1.235
1.24
1.245
1.25
1.255
1.26
1.265
1.27
1.275
1.28
Y_COORDINATES 257 float
0
0.005
0.01
0.015
0.02
0.025
0.03
0.035
0.04
0.045
0.05
0.055
0.06
0.065
0.07
0.075
0.08
0.085
0.09
0.095
0.1
0.105
0.11
0.115
0.12
0.125
0.13
0.135
0.14
0.145
0.15
0.155
0.16
0.165
0.17
0.175
0.18
0.185
0.19
0.195
0.2
0.205
0.21
0.215
0.22
0.225
0.23
0.235
0.24
0.245
0.25
0.255
0.26
0.265
0.27
0.275
0.28
0.285
0.29
0.295
0.3
0.305
0.31
0.315
0.32
0.325
0.33
0.335
0.34
0.345
0.35
0.355
0.36
0.365
0.37
0.375
0.38
0.385
0.39
0.395
0.4
0.405
0.41
0.415
0.42
0.425
0.43
0.435
0.44
0.445
0.45
0.455
0.46
0.465
0.47
0.475
0.48
0.485
0.49
0.495
0.5
0.505
0.51
0.515
0.52
0.525
0.53
0.535
0.54
0.545
0.55
0.555
0.56
0.565
0.57
0.575
0.58
0.585
0.59
0.595
0.6
0.605
0.61
0.615
0.62
0.625
0.63
0.635
0.64
0.645
0.65
0.655
0.66
0.665
0.67
0.675
0.68
0.685
0.69
0.695
0.7
0.705
0.71
0.715
0.72
0.725
0.73
0.735
0.74
0.745
0.75
0.755
0.76
0.765
0.77
0.775
0.78
0.785
0.79
0.795
0.8
0.805
0.81
0.815
0.82
0.825
0.83
0.835
0.84
0.845
0.85
0.855
0.86
0.865
0.87
0.875
0.88
0.885
0.89
0.895
0.9
0.905
0.91
0.915
0.92
0.925
0.93
0.935
0.94
0.945
0.95
0.955
0.96
0.965
0.97
0.975
0.98
0.985
0.99
0.995
1
1.005
1.01
1.015
1.02
1.025
1.03
1.035
1.04
1.045
1.05
1.055
1.06
1.065
1.07
1.075
1.08
1.085
1.09
1.095
1.1
1.105
1.11
1.115
1.12
1.125
1.13
1.135
1.14
1.145
1.15
1.155
1.16
1.165
1.17
1.175
1.18
1.185
1.19
1.195
1.2
1.205
1.21
1.215
1.22
1.225
1.23
1.235
1.24
1.245
1.25
1.255
1.26
1.265
1.27
1.275
1.28
Z_COORDINATES 1 float
0
CELL_DATA 65536
SCALARS H float 1
LOOKUP_TABLE default
100.517
100.516
100.515
100.513
100.51
100.507
100.503
100.499
100.495
100.491
100.486
100.481
100.477
100.472
100.467
100.463
100.459
100.455
100.451
100.448
100.445
100.443
100.441
100.439
100.438
100.437
100.436
100.436
100.436
100.436
100.436
100.437
100.438
100.439
100.439
100.44
100.441
100.441
100.441
100.441
100.441
100.44
100.439
100.438
100.436
100.433
100.43
100.426
100.422
100.417
100.411
100.405
100.398
100.391
100.382
100.374
100.364
100.355
100.344
100.334
100.323
100.311
100.3
100.288
100.277
100.265
100.254
100.244
100.234
100.225
100.217
100.21
100.204
100.2
100.197
100.196
100.197
100.2
100.206
100.213
100.223
100.236
100.251
100.268
100.289
100.312
100.337
100.364
100.394
100.426
100.46
100.495
100.532
100.569
100.606
100.643
100.679
100.714
100.747
100.777
100.805
100.828
100.848
100.864
100.875
100.882
100.883
100.88
100.873
100.861
100.844
100.824
100.801
100.774
100.745
100.714
100.681
100.647
100.612
100.576
100.54
100.505
100.47
100.436
100.403
100.372
100.342
100.314
100.288
100.264
100.242
100.223
100.206
100.191
100.179
100.169
100.162
100.157
100.154
100.153
100.154
100.156
100.161
100.167
100.174
100.183
100.193
100.203
100.214
100.226
100.237
100.249
100.261
100.273
100.285
100.296
100.307
100.317
100.326
100.335
100.343
100.35
100.357
100.362
100.367
100.371
100.374
100.377
100.378
100.38
100.381
100.382
100.383
100.383
100.384
100.386
100.388
100.391
100.395
100.4
100.406
100.414
100.423
100.434
100.447
100.462
100.479
100.497
100.518
100.54
100.564
100.589
100.616
100.643
100.672
100.701
100.731
100.761
100.791
100.82
100.849
100.876
100.903
100.928
100.951
100.973
100.992
101.009
101.024
101.036
101.047
101.054
101.06
101.062
101.063
101.062
101.058
101.053
101.046
101.038
101.028
101.017
101.005
100.992
100.979
100.966
100.952
100.938
100.924
100.911
100.897
100.884
100.872
100.86
100.849
100.838
100.828
100.818
100.81
100.802
100.794
100.788
100.782
100.776
100.772
100.767
100.764
100.761
100.758
100.756
100.754
100.753
100.751
100.751
100.75
100.75
100.517
100.516
100.515
100.513
100.51
100.507
100.503
100.499
100.495
100.491
100.486
100.481
100.477
100.472
100.467
100.463
100.459
100.455
100.451
100.448
100.445
100.443
100.44
100.439
100.437
100.436
100.436
100.435
100.435
100.436
100.436
100.437
100.437
100.438
100.439
100.44
100.44
100.441
100.441
100.441
100.441
100.44
100.439
100.437
100.435
100.433
100.43
100.426
100.422
100.417
100.411
100.405
100.398
100.39
100.382
100.374
100.364
100.355
100.344
100.334
100.323
100.311
100.3
100.288
100.277
100.265
100.254
100.244
100.234
100.225
100.217
100.21
100.205
100.201
100.198
100.198
100.199
100.203
100.208
100.216
100.226
100.239
100.255
100.272
100.293
100.316
100.341
100.368
100.398
100.43
100.463
100.498
100.533
100.569
100.605
100.641
100.676
100.709
100.741
100.77
100.796
100.818
100.837
100.852
100.862
100.868
100.87
100.867
100.86
100.848
100.833
100.814
100.792
100.767
100.739
100.71
100.678
100.645
100.611
100.577
100.543
100.508
100.474
100.441
100.409
100.379
100.35
100.322
100.297
100.273
100.252
100.232
100.216
100.201
100.189
100.179
100.171
100.165
100.162
100.16
100.161
100.163
100.167
100.172
100.179
100.187
100.195
100.205
100.215
100.226
100.237
100.248
100.26
100.271
100.282
100.293
100.303
100.313
100.322
100.331
100.339
100.346
100.352
100.358
100.363
100.367
100.37
100.373
100.375
100.377
100.379
100.38
100.381
100.382
100.384
100.386
100.388
100.392
100.396
100.401
100.408
100.416
100.426
100.437
100.451
100.466
100.482
100.501
100.522
100.544
100.568
100.593
100.619
100.647
100.675
100.704
100.734
100.764
100.793
100.822
100.85
100.877
100.903
100.928
100.951
100.972
100.991
101.007
101.022
101.034
101.043
101.05
101.055
101.058
101.058
101.056
101.052
101.047
101.04
101.031
101.021
101.01
100.997
100.985
100.971
100.958
100.944
100.93
100.916
100.902
100.889
100.876
100.863
100.851
100.84
100.829
100.819
100.809
100.801
100.793
100.785
100.779
100.773
100.768
100.763
100.759
100.755
100.752
100.749
100.747
100.745
100.744
100.743
100.742
100.741
100.741
100.517
100.516
100.515
100.513
100.51
100.507
100.503
100.499
100.495
100.491
100.486
100.481
100.476
100.472
100.467
100.463
100.458
100.455
100.451
100.448
100.445
100.442
100.44
100.438
100.437
100.436
100.435
100.435
100.435
100.435
100.436
100.436
100.437
100.438
100.439
100.439
100.44
100.44
100.441
100.441
100.44
100.44
100.439
100.437
100.435
100.432
100.429
100.426
100.421
100.416
100.411
100.404
100.398
100.39
100.382
100.373
100.364
100.354
100.344
100.333
100.322
100.311
100.299
100.288
100.277
100.265
100.255
100.244
100.235
100.226
100.219
100.212
100.207
100.203
100.201
100.201
100.203
100.207
100.213
100.221
100.232
100.245
100.261
100.279
100.299
100.322
100.347
100.375
100.404
100.435
100.467
100.501
100.535
100.569
100.603
100.637
100.67
100.701
100.73
100.757
100.78
100.801
100.818
100.832
100.842
100.847
100.849
100.847
100.84
100.83
100.817
100.799
100.779
100.756
100.731
100.703
100.674
100.643
100.612
100.579
100.547
100.514
100.482
100.45
100.419
100.39
100.362
100.335
100.31
100.287
100.266
100.247
100.23
100.216
100.203
100.193
100.185
100.179
100.175
100.172
100.172
100.173
100.176
100.18
100.185
100.192
100.199
100.208
100.217
100.226
100.236
100.247
100.257
100.267
100.278
100.288
100.298
100.307
100.316
100.324
100.332
100.339
100.346
100.352
100.357
100.361
100.365
100.369
100.371
100.374
100.376
100.377
100.379
100.381
100.383
100.386
100.389
100.393
100.398
100.404
100.411
100.42
100.43
100.442
100.456
100.471
100.488
100.507
100.528
100.55
100.574
100.599
100.625
100.652
100.68
100.709
100.738
100.767
100.796
100.824
100.852
100.878
100.904
100.928
100.95
100.97
100.988
101.004
101.018
101.029
101.038
101.045
101.049
101.051
101.05
101.048
101.044
101.038
101.03
101.021
101.011
100.999
100.987
100.974
100.961
100.947
100.933
100.919
100.905
100.891
100.877
100.864
100.852
100.84
100.829
100.818
100.808
100.798
100.79
100.782
100.775
100.768
100.762
100.757
100.753
100.749
100.745
100.742
100.739
100.737
100.735
100.734
100.733
100.732
100.732
100.732
100.517
100.516
100.515
100.513
100.51
100.507
100.503
100.499
100.495
100.49
100.486
100.481
100.476
100.472
100.467
100.462
100.458
100.454
100.451
100.447
100.444
100.442
100.44
100.438
100.436
100.435
100.435
100.434
100.434
100.435
100.435
100.436
100.436
100.437
100.438
100.439
100.439
100.44
100.44
100.44
100.44
100.439
100.438
100.437
100.435
100.432
100.429
100.425
100.421
100.416
100.41
100.404
100.397
100.39
100.382
100.373
100.364
100.354
100.343
100.333
100.322
100.31
100.299
100.288
100.277
100.266
100.255
100.245
100.236
100.228
100.22
100.214
100.21
100.207
100.205
100.206
100.208
100.213
100.219
100.228
100.239
100.253
100.269
100.288
100.308
100.331
100.356
100.383
100.412
100.441
100.472
100.504
100.536
100.568
100.6
100.631
100.66
100.688
100.714
100.738
100.759
100.778
100.793
100.805
100.814
100.819
100.821
100.819
100.814
100.805
100.794
100.779
100.761
100.741
100.719
100.694
100.668
100.64
100.611
100.582
100.552
100.522
100.492
100.462
100.433
100.405
100.379
100.353
100.329
100.307
100.287
100.268
100.252
100.237
100.224
100.213
100.205
100.198
100.192
100.189
100.187
100.187
100.188
100.191
100.194
100.199
100.205
100.212
100.219
100.227
100.236
100.244
100.254
100.263
100.272
100.281
100.291
100.299
100.308
100.316
100.324
100.331
100.337
100.344
100.349
100.354
100.358
100.362
100.366
100.369
100.371
100.374
100.377
100.379
100.382
100.386
100.39
100.395
100.401
100.407
100.415
100.425
100.436
100.448
100.462
100.478
100.496
100.515
100.535
100.558
100.581
100.606
100.632
100.659
100.687
100.715
100.744
100.772
100.8
100.828
100.854
100.88
100.904
100.927
100.949
100.968
100.985
101
101.013
101.024
101.032
101.038
101.041
101.043
101.042
101.039
101.034
101.028
101.02
101.011
101
100.988
100.976
100.963
100.949
100.935
100.921
100.907
100.893
100.88
100.866
100.853
100.841
100.829
100.818
100.807
100.797
100.788
100.779
100.772
100.765
100.758
100.753
100.748
100.743
100.739
100.736
100.733
100.73
100.728
100.727
100.725
100.724
100.723
100.723
100.723
100.517
100.516
100.515
100.512
100.51
100.507
100.503
100.499
100.495
100.49
100.486
100.481
100.476
100.471
100.467
100.462
100.458
100.454
100.45
100.447
100.444
100.441
100.439
100.437
100.436
100.435
100.434
100.434
100.434
100.434
100.434
100.435
100.436
100.436
100.437
100.438
100.439
100.439
100.439
100.439
100.439
100.439
100.437
100.436
100.434
100.431
100.428
100.425
100.42
100.415
100.41
100.404
100.397
100.389
100.381
100.372
100.363
100.353
100.343
100.332
100.321
100.31
100.299
100.288
100.277
100.266
100.256
100.246
100.238
100.23
100.223
100.218
100.214
100.211
100.211
100.212
100.215
100.22
100.228
100.237
100.249
100.263
100.28
100.299
100.319
100.342
100.367
100.393
100.42
100.449
100.478
100.507
100.537
100.566
100.594
100.622
100.648
100.672
100.695
100.715
100.733
100.749
100.762
100.772
100.78
100.785
100.786
100.786
100.782
100.775
100.766
100.754
100.739
100.722
100.703
100.682
100.66
100.636
100.61
100.584
100.557
100.53
100.503
100.476
100.45
100.424
100.399
100.376
100.353
100.332
100.312
100.294
100.278
100.263
100.25
100.239
100.229
100.221
100.215
100.21
100.206
100.204
100.204
100.204
100.206
100.209
100.212
100.217
100.222
100.229
100.235
100.242
100.25
100.258
100.266
100.274
100.283
100.291
100.299
100.306
100.314
100.321
100.328
100.334
100.34
100.345
100.35
100.355
100.359
100.363
100.366
100.37
100.374
100.377
100.381
100.386
100.391
100.397
100.404
100.411
100.42
100.431
100.442
100.455
100.47
100.486
100.504
100.523
100.544
100.567
100.59
100.615
100.641
100.667
100.694
100.722
100.75
100.777
100.804
100.831
100.857
100.882
100.905
100.927
100.947
100.966
100.982
100.997
101.009
101.018
101.026
101.031
101.034
101.035
101.034
101.031
101.026
101.019
101.011
101.001
100.991
100.979
100.967
100.953
100.94
100.926
100.912
100.898
100.884
100.871
100.857
100.845
100.832
100.821
100.81
100.799
100.79
100.781
100.772
100.765
100.758
100.752
100.746
100.741
100.737
100.733
100.73
100.727
100.725
100.723
100.721
100.72
100.719
100.718
100.718
100.718
100.517
100.516
100.514
100.512
100.51
100.507
100.503
100.499
100.495
100.49
100.485
100.481
100.476
100.471
100.466
100.462
100.457
100.453
100.449
100.446
100.443
100.44
100.438
100.436
100.435
100.434
100.433
100.433
100.433
100.433
100.433
100.434
100.435
100.435
100.436
100.437
100.438
100.438
100.439
100.439
100.438
100.438
100.437
100.435
100.433
100.431
100.428
100.424
100.42
100.415
100.409
100.403
100.396
100.388
100.38
100.371
100.362
100.352
100.342
100.331
100.321
100.31
100.299
100.288
100.277
100.267
100.257
100.248
100.24
100.233
100.227
100.222
100.219
100.217
100.217
100.219
100.223
100.23
100.238
100.248
100.261
100.276
100.293
100.312
100.332
100.355
100.378
100.403
100.429
100.456
100.483
100.509
100.536
100.561
100.586
100.609
100.632
100.652
100.671
100.688
100.703
100.716
100.726
100.735
100.742
100.746
100.748
100.748
100.745
100.741
100.734
100.725
100.713
100.7
100.685
100.668
100.649
100.629
100.608
100.586
100.563
100.54
100.516
100.492
100.469
100.446
100.423
100.401
100.381
100.361
100.342
100.325
100.308
100.294
100.28
100.268
100.258
100.248
100.24
100.234
100.228
100.224
100.222
100.22
100.219
100.22
100.221
100.224
100.227
100.231
100.236
100.241
100.247
100.254
100.26
100.267
100.275
100.282
100.289
100.297
100.304
100.311
100.318
100.324
100.33
100.336
100.341
100.347
100.352
100.356
100.361
100.365
100.37
100.375
100.38
100.386
100.392
100.399
100.407
100.415
100.425
100.436
100.449
100.463
100.478
100.495
100.513
100.532
100.553
100.575
100.599
100.623
100.649
100.675
100.701
100.728
100.755
100.782
100.809
100.834
100.859
100.883
100.906
100.927
100.946
100.964
100.98
100.993
101.005
101.014
101.021
101.026
101.029
101.029
101.028
101.024
101.019
101.012
101.004
100.995
100.984
100.973
100.96
100.947
100.934
100.92
100.907
100.893
100.879
100.866
100.853
100.84
100.828
100.817
100.806
100.796
100.786
100.778
100.77
100.762
100.756
100.75
100.744
100.739
100.735
100.732
100.728
100.726
100.724
100.722
100.72
100.719
100.718
100.717
100.717
100.717
100.517
100.516
100.514
100.512
100.51
100.506
100.503
100.499
100.495
100.49
100.485
100.48
100.475
100.471
100.466
100.461
100.457
100.453
100.449
100.445
100.442
100.439
100.437
100.435
100.434
100.433
100.432
100.432
100.432
100.432
100.432
100.433
100.434
100.434
100.435
100.436
100.437
100.437
100.438
100.438
100.437
100.437
100.436
100.434
100.432
100.43
100.427
100.423
100.419
100.414
100.408
100.402
100.395
100.388
100.379
100.371
100.361
100.351
100.341
100.331
100.32
100.309
100.299
100.288
100.278
100.268
100.259
100.25
100.243
100.236
100.231
100.227
100.225
100.224
100.225
100.228
100.233
100.241
100.25
100.261
100.274
100.29
100.307
100.326
100.346
100.368
100.391
100.414
100.438
100.462
100.486
100.51
100.532
100.554
100.575
100.594
100.612
100.629
100.644
100.657
100.669
100.68
100.688
100.695
100.701
100.705
100.707
100.707
100.706
100.704
100.699
100.693
100.685
100.675
100.664
100.651
100.637
100.621
100.605
100.587
100.568
100.549
100.529
100.509
100.489
100.469
100.449
100.43
100.411
100.392
100.375
100.358
100.342
100.327
100.314
100.301
100.289
100.278
100.269
100.261
100.253
100.247
100.242
100.238
100.235
100.233
100.232
100.232
100.233
100.235
100.238
100.241
100.246
100.25
100.256
100.262
100.268
100.274
100.281
100.287
100.294
100.301
100.308
100.314
100.321
100.327
100.333
100.339
100.344
100.35
100.355
100.361
100.366
100.372
100.379
100.385
100.393
100.401
100.409
100.419
100.43
100.442
100.455
100.469
100.485
100.502
100.521
100.54
100.561
100.584
100.607
100.631
100.656
100.681
100.708
100.734
100.76
100.786
100.812
100.837
100.861
100.884
100.906
100.927
100.945
100.962
100.977
100.991
101.002
101.01
101.017
101.022
101.024
101.025
101.023
101.02
101.015
101.009
101.001
100.991
100.981
100.97
100.958
100.945
100.932
100.919
100.905
100.892
100.879
100.866
100.853
100.841
100.829
100.818
100.807
100.797
100.788
100.779
100.771
100.764
100.758
100.752
100.747
100.742
100.738
100.734
100.731
100.729
100.727
100.725
100.723
100.722
100.721
100.721
100.72
100.72
100.517
100.516
100.514
100.512
100.51
100.506
100.503
100.499
100.494
100.49
100.485
100.48
100.475
100.47
100.465
100.461
100.456
100.452
100.448
100.444
100.441
100.439
100.436
100.434
100.433
100.432
100.431
100.43
100.43
100.431
100.431
100.432
100.433
100.433
100.434
100.435
100.436
100.436
100.437
100.437
100.436
100.436
100.435
100.433
100.431
100.429
100.426
100.422
100.418
100.413
100.407
100.401
100.394
100.386
100.378
100.369
100.36
100.351
100.34
100.33
100.32
100.309
100.299
100.289
100.279
100.27
100.261
100.253
100.246
100.241
100.236
100.234
100.232
100.233
100.235
100.239
100.245
100.253
100.263
100.275
100.289
100.305
100.322
100.34
100.36
100.381
100.402
100.424
100.445
100.467
100.487
100.507
100.526
100.544
100.561
100.576
100.59
100.603
100.615
100.625
100.634
100.642
100.648
100.654
100.658
100.662
100.664
100.666
100.666
100.665
100.663
100.659
100.655
100.649
100.641
100.633
100.623
100.612
100.6
100.587
100.573
100.558
100.542
100.526
100.51
100.493
100.476
100.459
100.442
100.426
100.409
100.394
100.378
100.363
100.349
100.335
100.323
100.311
100.3
100.289
100.28
100.272
100.264
100.258
100.253
100.248
100.245
100.243
100.242
100.241
100.242
100.244
100.246
100.249
100.253
100.258
100.263
100.268
100.274
100.28
100.286
100.292
100.299
100.305
100.312
100.318
100.325
100.331
100.337
100.343
100.35
100.356
100.363
100.37
100.377
100.385
100.393
100.402
100.412
100.422
100.434
100.446
100.46
100.475
100.491
100.509
100.527
100.547
100.568
100.59
100.613
100.637
100.662
100.687
100.712
100.738
100.763
100.789
100.814
100.838
100.862
100.884
100.906
100.925
100.944
100.96
100.975
100.988
100.999
101.007
101.014
101.019
101.021
101.022
101.021
101.018
101.013
101.007
100.999
100.99
100.98
100.97
100.958
100.946
100.933
100.92
100.907
100.894
100.881
100.869
100.856
100.844
100.833
100.822
100.812
100.802
100.793
100.784
100.777
100.77
100.763
100.758
100.752
100.748
100.744
100.741
100.738
100.735
100.733
100.731
100.73
100.728
100.728
100.727
100.727
100.727
100.517
100.516
100.514
100.512
100.51
100.506
100.503
100.499
100.494
100.49
100.485
100.48
100.475
100.47
100.465
100.46
100.455
100.451
100.447
100.444
100.44
100.438
100.435
100.433
100.432
100.43
100.43
100.429
100.429
100.429
100.43
100.431
100.431
100.432
100.433
100.434
100.435
100.435
100.436
100.436
100.435
100.435
100.434
100.432
100.43
100.428
100.425
100.421
100.417
100.412
100.406
100.4
100.393
100.385
100.377
100.368
100.359
100.35
100.34
100.33
100.319
100.309
100.299
100.29
100.28
100.272
100.264
100.257
100.251
100.246
100.243
100.241
100.241
100.242
100.246
100.251
100.258
100.267
100.278
100.29
100.305
100.32
100.337
100.355
100.374
100.393
100.412
100.432
100.45
100.469
100.486
100.502
100.517
100.531
100.544
100.556
100.566
100.575
100.584
100.591
100.597
100.603
100.608
100.612
100.616
100.619
100.622
100.624
100.625
100.626
100.626
100.625
100.624
100.621
100.618
100.613
100.608
100.601
100.594
100.585
100.576
100.566
100.554
100.542
100.53
100.516
100.503
100.488
100.474
100.459
100.444
100.429
100.414
100.4
100.385
100.371
100.357
100.344
100.331
100.319
100.308
100.298
100.288
100.28
100.272
100.266
100.26
100.256
100.253
100.25
100.249
100.249
100.249
100.251
100.253
100.256
100.26
100.264
100.269
100.274
100.28
100.286
100.292
100.298
100.305
100.311
100.318
100.324
100.331
100.338
100.345
100.352
100.359
100.367
100.375
100.384
100.393
100.403
100.413
100.424
100.437
100.45
100.464
100.48
100.496
100.514
100.532
100.552
100.573
100.595
100.618
100.641
100.665
100.69
100.715
100.74
100.765
100.79
100.814
100.838
100.861
100.883
100.904
100.923
100.941
100.957
100.972
100.985
100.995
101.004
101.011
101.016
101.019
101.02
101.019
101.016
101.012
101.006
100.999
100.991
100.982
100.971
100.96
100.949
100.936
100.924
100.911
100.899
100.886
100.874
100.862
100.85
100.839
100.828
100.818
100.809
100.8
100.792
100.784
100.777
100.771
100.765
100.76
100.756
100.752
100.748
100.745
100.743
100.741
100.739
100.738
100.736
100.736
100.735
100.735
100.734
100.517
100.516
100.514
100.512
100.51
100.506
100.503
100.499
100.494
100.489
100.484
100.479
100.474
100.469
100.464
100.459
100.455
100.45
100.446
100.443
100.439
100.436
100.434
100.432
100.43
100.429
100.428
100.428
100.428
100.428
100.429
100.429
100.43
100.431
100.432
100.433
100.433
100.434
100.434
100.435
100.434
100.434
100.433
100.431
100.429
100.427
100.423
100.42
100.415
100.41
100.405
100.398
100.391
100.384
100.376
100.367
100.358
100.349
100.339
100.329
100.319
100.31
100.3
100.291
100.283
100.275
100.268
100.262
100.257
100.253
100.251
100.25
100.251
100.254
100.258
100.264
100.272
100.282
100.293
100.306
100.321
100.336
100.352
100.369
100.386
100.403
100.42
100.437
100.453
100.467
100.481
100.494
100.505
100.515
100.525
100.533
100.54
100.546
100.551
100.556
100.56
100.564
100.568
100.571
100.574
100.577
100.58
100.583
100.586
100.588
100.59
100.592
100.593
100.594
100.594
100.593
100.592
100.59
100.587
100.583
100.578
100.572
100.565
100.557
100.548
100.538
100.528
100.516
100.504
100.491
100.478
100.464
100.45
100.435
100.421
100.406
100.392
100.377
100.364
100.35
100.337
100.325
100.314
100.304
100.294
100.286
100.278
100.272
100.266
100.262
100.259
100.257
100.256
100.256
100.257
100.258
100.261
100.264
100.268
100.272
100.277
100.282
100.288
100.293
100.3
100.306
100.313
100.319
100.326
100.333
100.341
100.348
100.356
100.365
100.373
100.382
100.392
100.403
100.414
100.426
100.438
100.452
100.467
100.482
100.499
100.517
100.535
100.555
100.576
100.597
100.62
100.643
100.667
100.691
100.715
100.74
100.765
100.789
100.813
100.836
100.859
100.88
100.901
100.92
100.937
100.953
100.968
100.98
100.991
101
101.007
101.012
101.015
101.017
101.016
101.014
101.011
101.005
100.999
100.991
100.983
100.973
100.962
100.951
100.94
100.928
100.916
100.904
100.892
100.88
100.868
100.857
100.846
100.835
100.825
100.816
100.807
100.799
100.792
100.785
100.779
100.773
100.768
100.764
100.76
100.757
100.754
100.751
100.749
100.747
100.746
100.745
100.744
100.743
100.743
100.743
100.517
100.516
100.514
100.512
100.51
100.506
100.503
100.498
100.494
100.489
100.484
100.479
100.474
100.469
100.464
100.459
100.454
100.45
100.445
100.442
100.438
100.435
100.433
100.431
100.429
100.428
100.427
100.427
100.427
100.427
100.427
100.428
100.429
100.43
100.431
100.432
100.432
100.433
100.433
100.433
100.433
100.433
100.431
100.43
100.428
100.425
100.422
100.418
100.414
100.409
100.403
100.396
100.39
100.382
100.374
100.366
100.357
100.348
100.338
100.329
100.32
100.311
100.302
100.294
100.286
100.279
100.273
100.267
100.264
100.261
100.26
100.26
100.262
100.266
100.271
100.279
100.287
100.298
100.309
100.322
100.336
100.351
100.366
100.381
100.397
100.411
100.426
100.439
100.452
100.463
100.473
100.482
100.49
100.497
100.503
100.508
100.512
100.515
100.519
100.521
100.524
100.527
100.529
100.532
100.535
100.538
100.541
100.544
100.548
100.552
100.556
100.56
100.563
100.567
100.57
100.573
100.576
100.578
100.579
100.579
100.578
100.576
100.573
100.569
100.564
100.558
100.55
100.541
100.532
100.521
100.509
100.496
100.483
100.469
100.454
100.44
100.425
100.41
100.395
100.381
100.367
100.354
100.341
100.329
100.318
100.308
100.299
100.29
100.283
100.278
100.273
100.269
100.266
100.265
100.264
100.264
100.265
100.267
100.27
100.273
100.277
100.281
100.286
100.291
100.297
100.303
100.309
100.316
100.323
100.33
100.337
100.345
100.354
100.362
100.371
100.381
100.391
100.402
100.413
100.426
100.439
100.453
100.468
100.483
100.5
100.518
100.537
100.556
100.577
100.598
100.621
100.643
100.667
100.69
100.714
100.738
100.762
100.786
100.81
100.833
100.855
100.876
100.896
100.914
100.932
100.948
100.962
100.975
100.985
100.994
101.002
101.007
101.011
101.012
101.012
101.011
101.008
101.003
100.997
100.99
100.982
100.973
100.963
100.953
100.942
100.93
100.919
100.907
100.896
100.884
100.873
100.862
100.851
100.841
100.832
100.823
100.814
100.806
100.799
100.792
100.786
100.781
100.776
100.772
100.768
100.765
100.762
100.759
100.757
100.756
100.754
100.753
100.752
100.752
100.751
100.751
100.517
100.516
100.515
100.512
100.51
100.506
100.503
100.498
100.494
100.489
100.484
100.479
100.473
100.468
100.463
100.458
100.453
100.449
100.444
100.441
100.437
100.434
100.432
100.43
100.428
100.427
100.426
100.426
100.426
100.426
100.426
100.427
100.428
100.429
100.43
100.43
100.431
100.432
100.432
100.432
100.432
100.431
100.43
100.429
100.426
100.424
100.42
100.416
100.412
100.407
100.401
100.395
100.388
100.38
100.372
100.364
100.356
100.347
100.338
100.329
100.321
100.312
100.304
100.297
100.29
100.284
100.278
100.274
100.272
100.27
100.27
100.272
100.275
100.28
100.286
100.294
100.303
100.314
100.326
100.338
100.351
100.365
100.378
100.391
100.404
100.416
100.428
100.438
100.447
100.455
100.462
100.467
100.472
100.476
100.479
100.481
100.483
100.485
100.486
100.487
100.489
100.49
100.492
100.495
100.497
100.501
100.504
100.509
100.513
100.519
100.524
100.53
100.536
100.542
100.549
100.555
100.561
100.566
100.57
100.574
100.577
100.579
100.58
100.579
100.577
100.574
100.569
100.563
100.555
100.546
100.536
100.525
100.513
100.499
100.485
100.471
100.456
100.441
100.426
100.411
100.397
100.382
100.369
100.356
100.343
100.332
100.322
100.312
100.304
100.296
100.29
100.285
100.281
100.278
100.276
100.274
100.274
100.275
100.276
100.278
100.281
100.284
100.288
100.292
100.297
100.303
100.308
100.315
100.321
100.328
100.335
100.343
100.351
100.36
100.369
100.379
100.389
100.401
100.412
100.425
100.438
100.453
100.468
100.484
100.501
100.518
100.537
100.557
100.577
100.598
100.62
100.643
100.665
100.689
100.712
100.736
100.759
100.782
100.805
100.827
100.849
100.87
100.889
100.907
100.925
100.94
100.954
100.967
100.977
100.986
100.994
100.999
101.003
101.005
101.006
101.005
101.002
100.998
100.993
100.987
100.979
100.971
100.962
100.952
100.941
100.931
100.92
100.909
100.898
100.887
100.876
100.865
100.855
100.846
100.836
100.828
100.82
100.812
100.805
100.799
100.793
100.788
100.783
100.779
100.775
100.772
100.769
100.767
100.765
100.763
100.762
100.761
100.76
100.76
100.759
100.759
100.517
100.516
100.515
100.513
100.51
100.506
100.503
100.498
100.494
100.489
100.484
100.478
100.473
100.468
100.462
100.457
100.452
100.448
100.444
100.44
100.436
100.433
100.431
100.429
100.427
100.426
100.425
100.424
100.424
100.425
100.425
100.426
100.427
100.427
100.428
100.429
100.43
100.431
100.431
100.431
100.431
100.43
100.429
100.427
100.425
100.422
100.419
100.415
100.41
100.405
100.399
100.393
100.386
100.379
100.371
100.363
100.355
100.347
100.338
100.33
100.322
100.314
100.307
100.3
100.294
100.289
100.285
100.282
100.281
100.28
100.282
100.284
100.289
100.294
100.301
100.31
100.319
100.33
100.341
100.353
100.365
100.376
100.388
100.399
100.409
100.418
100.426
100.433
100.439
100.443
100.447
100.45
100.452
100.453
100.453
100.454
100.454
100.454
100.454
100.454
100.455
100.456
100.458
100.46
100.463
100.467
100.471
100.476
100.482
100.489
100.496
100.504
100.512
100.521
100.529
100.538
100.546
100.555
100.562
100.569
100.575
100.58
100.584
100.586
100.587
100.586
100.584
100.58
100.574
100.567
100.559
100.549
100.538
100.526
100.513
100.499
100.485
100.47
100.455
100.44
100.426
100.411
100.397
100.383
100.371
100.358
100.347
100.337
100.327
100.319
100.311
100.305
100.299
100.295
100.291
100.289
100.287
100.286
100.286
100.287
100.288
100.29
100.293
100.297
100.3
100.305
100.31
100.315
100.321
100.328
100.334
100.342
100.35
100.358
100.368
100.378
100.388
100.399
100.411
100.424
100.438
100.452
100.467
100.483
100.5
100.518
100.537
100.556
100.577
100.598
100.619
100.641
100.663
100.686
100.709
100.732
100.755
100.777
100.799
100.821
100.842
100.862
100.881
100.899
100.915
100.93
100.944
100.956
100.967
100.976
100.983
100.989
100.993
100.995
100.996
100.996
100.994
100.99
100.985
100.98
100.973
100.965
100.957
100.948
100.938
100.928
100.918
100.908
100.897
100.887
100.877
100.867
100.857
100.848
100.839
100.831
100.823
100.816
100.81
100.804
100.798
100.793
100.789
100.785
100.781
100.778
100.776
100.774
100.772
100.77
100.769
100.768
100.767
100.767
100.767
100.767
100.518
100.517
100.515
100.513
100.51
100.507
100.503
100.498
100.494
100.489
100.483
100.478
100.472
100.467
100.462
100.457
100.452
100.447
100.443
100.439
100.435
100.432
100.43
100.428
100.426
100.425
100.424
100.423
100.423
100.424
100.424
100.425
100.426
100.426
100.427
100.428
100.429
100.429
100.43
100.43
100.429
100.429
100.427
100.425
100.423
100.42
100.417
100.413
100.408
100.403
100.397
100.391
100.384
100.377
100.37
100.362
100.354
100.346
100.339
100.331
100.324
100.317
100.311
100.305
100.3
100.296
100.293
100.292
100.291
100.292
100.294
100.298
100.303
100.31
100.317
100.326
100.335
100.345
100.355
100.366
100.376
100.385
100.394
100.403
100.41
100.416