# vtk DataFile Version 2.0
HPC Tutorials: Michael Bader, Kaveh Rahnema, Oliver Meister
ASCII
DATASET RECTILINEAR_GRID
DIMENSIONS 257 257 1
X_COORDINATES 257 float
0
0.005
0.01
0.015
0.02
0.025
0.03
0.035
0.04
0.045
0.05
0.055
0.06
0.065
0.07
0.075
0.08
0.085
0.09
0.095
0.1
0.105
0.11
0.115
0.12
0.125
0.13
0.135
0.14
0.145
0.15
0.155
0.16
0.165
0.17
0.175
0.18
0.185
0.19
0.195
0.2
0.205
0.21
0.215
0.22
0.225
0.23
0.235
0.24
0.245
0.25
0.255
0.26
0.265
0.27
0.275
0.28
0.285
0.29
0.295
0.3
0.305
0.31
0.315
0.32
0.325
0.33
0.335
0.34
0.345
0.35
0.355
0.36
0.365
0.37
0.375
0.38
0.385
0.39
0.395
0.4
0.405
0.41
0.415
0.42
0.425
0.43
0.435
0.44
0.445
0.45
0.455
0.46
0.465
0.47
0.475
0.48
0.485
0.49
0.495
0.5
0.505
0.51
0.515
0.52
0.525
0.53
0.535
0.54
0.545
0.55
0.555
0.56
0.565
0.57
0.575
0.58
0.585
0.59
0.595
0.6
0.605
0.61
0.615
0.62
0.625
0.63
0.635
0.64
0.645
0.65
0.655
0.66
0.665
0.67
0.675
0.68
0.685
0.69
0.695
0.7
0.705
0.71
0.715
0.72
0.725
0.73
0.735
0.74
0.745
0.75
0.755
0.76
0.765
0.77
0.775
0.78
0.785
0.79
0.795
0.8
0.805
0.81
0.815
0.82
0.825
0.83
0.835
0.84
0.845
0.85
0.855
0.86
0.865
0.87
0.875
0.88
0.885
0.89
0.895
0.9
0.905
0.91
0.915
0.92
0.925
0.93
0.935
0.94
0.945
0.95
0.955
0.96
0.965
0.97
0.975
0.98
0.985
0.99
0.995
1
1.005
1.01
1.015
1.02
1.025
1.03
1.035
1.04
1.045
1.05
1.055
1.06
1.065
1.07
1.075
1.08
1.085
1.09
1.095
1.1
1.105
1.11
1.115
1.12
1.125
1.13
1.135
1.14
1.145
1.15
1.155
1.16
1.165
1.17
1.175
1.18
1.185
1.19
1.195
1.2
1.205
1.21
1.215
1.22
1.225
1.23
1.235
1.24
1.245
1.25
1.255
1.26
1.265
1.27
1.275
1.28
Y_COORDINATES 257 float
0
0.005
0.01
0.015
0.02
0.025
0.03
0.035
0.04
0.045
0.05
0.055
0.06
0.065
0.07
0.075
0.08
0.085
0.09
0.095
0.1
0.105
0.11
0.115
0.12
0.125
0.13
0.135
0.14
0.145
0.15
0.155
0.16
0.165
0.17
0.175
0.18
0.185
0.19
0.195
0.2
0.205
0.21
0.215
0.22
0.225
0.23
0.235
0.24
0.245
0.25
0.255
0.26
0.265
0.27
0.275
0.28
0.285
0.29
0.295
0.3
0.305
0.31
0.315
0.32
0.325
0.33
0.335
0.34
0.345
0.35
0.355
0.36
0.365
0.37
0.375
0.38
0.385
0.39
0.395
0.4
0.405
0.41
0.415
0.42
0.425
0.43
0.435
0.44
0.445
0.45
0.455
0.46
0.465
0.47
0.475
0.48
0.485
0.49
0.495
0.5
0.505
0.51
0.515
0.52
0.525
0.53
0.535
0.54
0.545
0.55
0.555
0.56
0.565
0.57
0.575
0.58
0.585
0.59
0.595
0.6
0.605
0.61
0.615
0.62
0.625
0.63
0.635
0.64
0.645
0.65
0.655
0.66
0.665
0.67
0.675
0.68
0.685
0.69
0.695
0.7
0.705
0.71
0.715
0.72
0.725
0.73
0.735
0.74
0.745
0.75
0.755
0.76
0.765
0.77
0.775
0.78
0.785
0.79
0.795
0.8
0.805
0.81
0.815
0.82
0.825
0.83
0.835
0.84
0.845
0.85
0.855
0.86
0.865
0.87
0.875
0.88
0.885
0.89
0.895
0.9
0.905
0.91
0.915
0.92
0.925
0.93
0.935
0.94
0.945
0.95
0.955
0.96
0.965
0.97
0.975
0.98
0.985
0.99
0.995
1
1.005
1.01
1.015
1.02
1.025
1.03
1.035
1.04
1.045
1.05
1.055
1.06
1.065
1.07
1.075
1.08
1.085
1.09
1.095
1.1
1.105
1.11
1.115
1.12
1.125
1.13
1.135
1.14
1.145
1.15
1.155
1.16
1.165
1.17
1.175
1.18
1.185
1.19
1.195
1.2
1.205
1.21
1.215
1.22
1.225
1.23
1.235
1.24
1.245
1.25
1.255
1.26
1.265
1.27
1.275
1.28
Z_COORDINATES 1 float
0
CELL_DATA 65536
SCALARS H float 1
LOOKUP_TABLE default
99.7188
99.721
99.7243
99.7289
99.7343
99.7402
99.7464
99.7523
99.7578
99.7625
99.7663
99.7689
99.7704
99.7705
99.7693
99.7669
99.7633
99.7587
99.7533
99.7472
99.7407
99.7342
99.7279
99.722
99.7169
99.7128
99.7099
99.7083
99.7081
99.7093
99.7119
99.7157
99.7206
99.7265
99.7331
99.7402
99.7475
99.7549
99.762
99.7686
99.7747
99.7801
99.785
99.7895
99.794
99.7988
99.8043
99.8106
99.8181
99.8265
99.8357
99.8454
99.8551
99.8647
99.8739
99.8826
99.8908
99.8985
99.9059
99.9128
99.9192
99.9247
99.9293
99.9328
99.935
99.9362
99.9363
99.9356
99.9342
99.9322
99.93
99.9277
99.9255
99.9237
99.9227
99.9224
99.923
99.9245
99.9265
99.9291
99.9323
99.936
99.9406
99.9463
99.9531
99.9611
99.9702
99.9799
99.9899
99.9996
100.009
100.017
100.024
100.031
100.037
100.043
100.049
100.055
100.061
100.067
100.072
100.077
100.083
100.088
100.093
100.098
100.104
100.11
100.116
100.122
100.128
100.134
100.14
100.145
100.15
100.155
100.16
100.164
100.168
100.172
100.175
100.179
100.183
100.186
100.19
100.194
100.198
100.203
100.208
100.213
100.219
100.225
100.232
100.238
100.246
100.253
100.261
100.269
100.277
100.284
100.292
100.3
100.308
100.315
100.322
100.329
100.336
100.343
100.35
100.357
100.363
100.37
100.377
100.384
100.39
100.397
100.404
100.411
100.418
100.425
100.431
100.438
100.444
100.45
100.455
100.46
100.465
100.47
100.474
100.479
100.482
100.486
100.49
100.493
100.497
100.5
100.503
100.507
100.51
100.514
100.517
100.521
100.524
100.528
100.531
100.534
100.537
100.54
100.542
100.544
100.545
100.546
100.547
100.547
100.547
100.546
100.545
100.544
100.543
100.541
100.54
100.539
100.538
100.537
100.536
100.536
100.537
100.538
100.54
100.542
100.545
100.549
100.552
100.557
100.562
100.567
100.573
100.578
100.584
100.59
100.597
100.603
100.609
100.615
100.622
100.628
100.634
100.64
100.647
100.653
100.659
100.665
100.672
100.678
100.684
100.69
100.696
100.702
100.708
100.714
100.719
100.724
100.728
100.733
100.736
100.74
100.743
100.746
100.748
100.75
100.752
100.753
100.754
100.755
100.755
100.755
99.721
99.723
99.7262
99.7305
99.7355
99.7411
99.7468
99.7523
99.7574
99.7618
99.7652
99.7677
99.7689
99.769
99.7679
99.7655
99.7621
99.7577
99.7525
99.7467
99.7406
99.7344
99.7283
99.7226
99.7177
99.7137
99.7108
99.7092
99.7089
99.71
99.7124
99.716
99.7208
99.7265
99.7329
99.7399
99.7472
99.7544
99.7615
99.7682
99.7744
99.7799
99.7849
99.7895
99.7941
99.799
99.8046
99.811
99.8184
99.8268
99.8359
99.8455
99.8551
99.8646
99.8736
99.8821
99.8902
99.8978
99.9051
99.912
99.9184
99.924
99.9287
99.9323
99.9348
99.9362
99.9365
99.936
99.9348
99.9331
99.931
99.9288
99.9267
99.925
99.9239
99.9236
99.9242
99.9255
99.9274
99.9298
99.9328
99.9364
99.9408
99.9463
99.953
99.961
99.97
99.9798
99.9898
99.9995
100.009
100.017
100.024
100.031
100.037
100.043
100.049
100.055
100.061
100.067
100.072
100.077
100.082
100.087
100.092
100.098
100.103
100.109
100.115
100.121
100.128
100.134
100.139
100.145
100.15
100.155
100.159
100.163
100.167
100.171
100.175
100.179
100.183
100.186
100.19
100.194
100.198
100.203
100.208
100.213
100.219
100.225
100.232
100.239
100.246
100.253
100.261
100.269
100.277
100.284
100.292
100.3
100.307
100.315
100.322
100.329
100.336
100.343
100.35
100.357
100.363
100.37
100.377
100.384
100.39
100.397
100.404
100.411
100.418
100.425
100.431
100.438
100.444
100.45
100.455
100.461
100.465
100.47
100.475
100.479
100.483
100.486
100.49
100.493
100.497
100.5
100.503
100.507
100.51
100.514
100.517
100.521
100.524
100.528
100.531
100.534
100.537
100.539
100.542
100.544
100.545
100.546
100.547
100.547
100.547
100.546
100.545
100.544
100.543
100.541
100.54
100.539
100.538
100.537
100.536
100.537
100.537
100.538
100.54
100.542
100.545
100.549
100.553
100.557
100.562
100.567
100.573
100.578
100.584
100.59
100.597
100.603
100.609
100.615
100.622
100.628
100.634
100.64
100.647
100.653
100.659
100.665
100.672
100.678
100.684
100.69
100.696
100.702
100.708
100.714
100.719
100.724
100.728
100.733
100.736
100.74
100.743
100.746
100.748
100.75
100.752
100.753
100.754
100.755
100.755
100.756
99.7243
99.7262
99.729
99.7329
99.7374
99.7424
99.7474
99.7524
99.7568
99.7607
99.7637
99.7658
99.7669
99.7668
99.7657
99.7635
99.7603
99.7562
99.7514
99.7461
99.7404
99.7346
99.7289
99.7235
99.7189
99.715
99.7122
99.7105
99.7101
99.711
99.7131
99.7165
99.721
99.7265
99.7327
99.7395
99.7467
99.7539
99.761
99.7678
99.774
99.7797
99.7848
99.7896
99.7944
99.7994
99.805
99.8115
99.8189
99.8272
99.8362
99.8456
99.8551
99.8643
99.873
99.8813
99.8892
99.8967
99.9039
99.9107
99.9172
99.9229
99.9278
99.9317
99.9345
99.9362
99.9368
99.9367
99.9358
99.9343
99.9325
99.9304
99.9285
99.9268
99.9257
99.9253
99.9258
99.9269
99.9286
99.9308
99.9335
99.9368
99.9411
99.9464
99.953
99.9609
99.9699
99.9796
99.9897
99.9995
100.009
100.017
100.025
100.031
100.038
100.044
100.05
100.055
100.061
100.067
100.072
100.077
100.082
100.087
100.092
100.097
100.103
100.108
100.114
100.121
100.127
100.133
100.138
100.144
100.149
100.154
100.158
100.163
100.167
100.171
100.175
100.179
100.182
100.186
100.19
100.194
100.198
100.203
100.208
100.213
100.219
100.225
100.232
100.239
100.246
100.253
100.261
100.269
100.276
100.284
100.292
100.3
100.307
100.315
100.322
100.329
100.336
100.343
100.35
100.356
100.363
100.37
100.377
100.383
100.39
100.397
100.404
100.411
100.418
100.425
100.431
100.438
100.444
100.45
100.455
100.461
100.466
100.47
100.475
100.479
100.483
100.486
100.49
100.493
100.497
100.5
100.503
100.507
100.51
100.514
100.517
100.521
100.524
100.528
100.531
100.534
100.537
100.539
100.542
100.544
100.545
100.546
100.547
100.547
100.547
100.546
100.545
100.544
100.543
100.541
100.54
100.539
100.538
100.537
100.537
100.537
100.537
100.538
100.54
100.542
100.545
100.549
100.553
100.557
100.562
100.567
100.573
100.578
100.584
100.59
100.596
100.603
100.609
100.615
100.621
100.628
100.634
100.64
100.647
100.653
100.659
100.665
100.672
100.678
100.684
100.69
100.696
100.702
100.708
100.714
100.719
100.724
100.728
100.733
100.736
100.74
100.743
100.746
100.748
100.75
100.752
100.753
100.754
100.755
100.755
100.756
99.7289
99.7305
99.7329
99.7361
99.7399
99.7441
99.7483
99.7524
99.7561
99.7592
99.7616
99.7633
99.764
99.7638
99.7627
99.7607
99.7578
99.7542
99.7499
99.7451
99.74
99.7348
99.7296
99.7248
99.7204
99.7167
99.714
99.7123
99.7117
99.7124
99.7142
99.7173
99.7215
99.7266
99.7326
99.7391
99.7462
99.7533
99.7604
99.7672
99.7736
99.7794
99.7848
99.7898
99.7948
99.7999
99.8057
99.8122
99.8196
99.8278
99.8366
99.8458
99.8549
99.8638
99.8723
99.8802
99.8878
99.8951
99.9022
99.909
99.9155
99.9215
99.9266
99.9308
99.934
99.9361
99.9372
99.9375
99.937
99.9359
99.9344
99.9326
99.9308
99.9292
99.9281
99.9276
99.9279
99.9288
99.9302
99.9321
99.9345
99.9375
99.9415
99.9466
99.953
99.9608
99.9698
99.9795
99.9896
99.9995
100.009
100.017
100.025
100.032
100.038
100.044
100.05
100.056
100.061
100.067
100.072
100.077
100.081
100.086
100.091
100.096
100.102
100.107
100.113
100.119
100.126
100.132
100.137
100.143
100.148
100.153
100.158
100.162
100.166
100.17
100.174
100.178
100.182
100.186
100.19
100.194
100.198
100.203
100.208
100.213
100.219
100.225
100.232
100.239
100.246
100.253
100.261
100.269
100.276
100.284
100.292
100.299
100.307
100.314
100.322
100.329
100.336
100.343
100.349
100.356
100.363
100.37
100.376
100.383
100.39
100.397
100.404
100.411
100.418
100.425
100.431
100.438
100.444
100.45
100.455
100.461
100.466
100.47
100.475
100.479
100.483
100.486
100.49
100.493
100.497
100.5
100.503
100.507
100.51
100.514
100.517
100.521
100.524
100.527
100.531
100.534
100.537
100.539
100.541
100.543
100.545
100.546
100.547
100.547
100.547
100.546
100.545
100.544
100.543
100.542
100.54
100.539
100.538
100.537
100.537
100.537
100.537
100.539
100.54
100.543
100.545
100.549
100.553
100.557
100.562
100.567
100.572
100.578
100.584
100.59
100.596
100.603
100.609
100.615
100.621
100.628
100.634
100.64
100.646
100.653
100.659
100.665
100.672
100.678
100.684
100.69
100.696
100.702
100.708
100.714
100.719
100.724
100.728
100.733
100.737
100.74
100.743
100.746
100.748
100.75
100.752
100.753
100.754
100.755
100.755
100.756
99.7343
99.7355
99.7374
99.7399
99.7429
99.7461
99.7493
99.7524
99.7551
99.7574
99.7591
99.7601
99.7605
99.7601
99.7591
99.7573
99.7548
99.7517
99.7481
99.744
99.7396
99.735
99.7305
99.7261
99.7222
99.7188
99.7161
99.7144
99.7137
99.7141
99.7156
99.7183
99.7221
99.7269
99.7325
99.7388
99.7457
99.7527
99.7598
99.7667
99.7732
99.7792
99.7848
99.79
99.7952
99.8006
99.8064
99.813
99.8203
99.8284
99.837
99.8459
99.8547
99.8632
99.8713
99.8789
99.8862
99.8932
99.9001
99.9069
99.9135
99.9196
99.9251
99.9297
99.9333
99.9359
99.9376
99.9383
99.9384
99.9377
99.9365
99.935
99.9334
99.9319
99.9308
99.9303
99.9303
99.931
99.9321
99.9337
99.9357
99.9384
99.9421
99.9469
99.9531
99.9608
99.9698
99.9796
99.9898
99.9998
100.009
100.018
100.026
100.033
100.039
100.045
100.051
100.056
100.062
100.067
100.072
100.076
100.081
100.085
100.09
100.095
100.1
100.106
100.112
100.118
100.124
100.13
100.136
100.142
100.147
100.152
100.157
100.161
100.166
100.17
100.174
100.178
100.182
100.186
100.19
100.194
100.198
100.203
100.208
100.213
100.219
100.225
100.232
100.239
100.246
100.253
100.261
100.268
100.276
100.284
100.292
100.299
100.307
100.314
100.321
100.328
100.335
100.342
100.349
100.356
100.363
100.369
100.376
100.383
100.39
100.397
100.404
100.411
100.418
100.425
100.431
100.438
100.444
100.45
100.456
100.461
100.466
100.471
100.475
100.479
100.483
100.487
100.49
100.493
100.497
100.5
100.503
100.507
100.51
100.513
100.517
100.52
100.524
100.527
100.53
100.534
100.536
100.539
100.541
100.543
100.545
100.546
100.547
100.547
100.547
100.546
100.545
100.544
100.543
100.542
100.54
100.539
100.538
100.538
100.537
100.537
100.538
100.539
100.541
100.543
100.546
100.549
100.553
100.557
100.562
100.567
100.572
100.578
100.584
100.59
100.596
100.602
100.609
100.615
100.621
100.627
100.634
100.64
100.646
100.653
100.659
100.665
100.672
100.678
100.684
100.69
100.696
100.702
100.708
100.714
100.719
100.724
100.728
100.733
100.737
100.74
100.743
100.746
100.748
100.75
100.752
100.753
100.754
100.755
100.756
100.756
99.7403
99.7411
99.7424
99.7441
99.7461
99.7482
99.7503
99.7523
99.7539
99.7552
99.7561
99.7566
99.7565
99.756
99.755
99.7534
99.7514
99.7488
99.7459
99.7426
99.739
99.7352
99.7313
99.7275
99.724
99.721
99.7185
99.7168
99.7159
99.7161
99.7173
99.7196
99.723
99.7273
99.7326
99.7387
99.7453
99.7523
99.7593
99.7663
99.7729
99.7791
99.7849
99.7904
99.7958
99.8013
99.8073
99.8139
99.8211
99.8291
99.8374
99.846
99.8544
99.8625
99.8701
99.8773
99.8842
99.891
99.8978
99.9045
99.9112
99.9175
99.9233
99.9283
99.9324
99.9355
99.9378
99.9391
99.9397
99.9395
99.9387
99.9375
99.9361
99.9348
99.9337
99.9331
99.9331
99.9335
99.9343
99.9356
99.9372
99.9396
99.9429
99.9475
99.9535
99.9611
99.97
99.9799
99.9902
100
100.01
100.019
100.027
100.034
100.04
100.046
100.052
100.057
100.062
100.067
100.072
100.076
100.08
100.085
100.089
100.094
100.099
100.105
100.11
100.117
100.123
100.129
100.134
100.14
100.145
100.151
100.156
100.16
100.165
100.169
100.173
100.177
100.182
100.186
100.19
100.194
100.198
100.203
100.208
100.214
100.219
100.225
100.232
100.239
100.246
100.253
100.261
100.268
100.276
100.284
100.291
100.299
100.307
100.314
100.321
100.328
100.335
100.342
100.349
100.356
100.362
100.369
100.376
100.383
100.39
100.397
100.404
100.411
100.418
100.425
100.431
100.438
100.444
100.45
100.456
100.461
100.466
100.471
100.475
100.479
100.483
100.487
100.49
100.493
100.497
100.5
100.503
100.507
100.51
100.513
100.517
100.52
100.524
100.527
100.53
100.533
100.536
100.539
100.541
100.543
100.545
100.546
100.546
100.547
100.547
100.546
100.545
100.544
100.543
100.542
100.541
100.54
100.539
100.538
100.538
100.538
100.538
100.539
100.541
100.543
100.546
100.549
100.553
100.557
100.562
100.567
100.572
100.578
100.584
100.59
100.596
100.602
100.608
100.615
100.621
100.627
100.634
100.64
100.646
100.652
100.659
100.665
100.672
100.678
100.684
100.69
100.696
100.702
100.708
100.714
100.719
100.724
100.729
100.733
100.737
100.74
100.743
100.746
100.748
100.751
100.752
100.754
100.755
100.755
100.756
100.756
99.7464
99.7468
99.7474
99.7483
99.7493
99.7503
99.7512
99.752
99.7526
99.7529
99.7529
99.7527
99.7523
99.7515
99.7505
99.7492
99.7476
99.7457
99.7435
99.741
99.7382
99.7352
99.732
99.7289
99.7259
99.7232
99.7209
99.7192
99.7183
99.7182
99.7192
99.7211
99.7241
99.7281
99.733
99.7388
99.7452
99.7521
99.7591
99.7661
99.7729
99.7792
99.7852
99.7909
99.7965
99.8022
99.8082
99.8148
99.822
99.8297
99.8378
99.846
99.854
99.8616
99.8688
99.8755
99.8821
99.8886
99.8952
99.9019
99.9086
99.9152
99.9212
99.9267
99.9313
99.935
99.9378
99.9397
99.9408
99.9411
99.9408
99.9399
99.9388
99.9377
99.9367
99.9361
99.936
99.9362
99.9368
99.9377
99.939
99.9411
99.9441
99.9484
99.9542
99.9617
99.9706
99.9805
99.9909
100.001
100.011
100.02
100.028
100.035
100.041
100.047
100.053
100.058
100.063
100.067
100.072
100.076
100.08
100.084
100.088
100.093
100.098
100.103
100.109
100.115
100.121
100.127
100.133
100.139
100.144
100.149
100.154
100.159
100.164
100.168
100.173
100.177
100.181
100.185
100.19
100.194
100.199
100.203
100.208
100.214
100.22
100.226
100.232
100.239
100.246
100.253
100.261
100.268
100.276
100.284
100.291
100.299
100.306
100.314
100.321
100.328
100.335
100.342
100.349
100.355
100.362
100.369
100.376
100.383
100.39
100.397
100.404
100.411
100.418
100.425
100.431
100.438
100.444
100.45
100.456
100.461
100.466
100.471
100.475
100.479
100.483
100.487
100.49
100.493
100.497
100.5
100.503
100.506
100.51
100.513
100.517
100.52
100.523
100.527
100.53
100.533
100.536
100.539
100.541
100.543
100.544
100.546
100.546
100.547
100.547
100.546
100.546
100.545
100.544
100.542
100.541
100.54
100.539
100.538
100.538
100.538
100.539
100.54
100.541
100.543
100.546
100.549
100.553
100.557
100.562
100.567
100.572
100.578
100.584
100.59
100.596
100.602
100.608
100.614
100.621
100.627
100.633
100.64
100.646
100.652
100.659
100.665
100.671
100.678
100.684
100.69
100.696
100.702
100.708
100.714
100.719
100.724
100.729
100.733
100.737
100.74
100.743
100.746
100.749
100.751
100.752
100.754
100.755
100.755
100.756
100.756
99.7523
99.7523
99.7524
99.7524
99.7524
99.7523
99.752
99.7516
99.7511
99.7504
99.7496
99.7488
99.7479
99.7469
99.746
99.7449
99.7438
99.7424
99.7409
99.7392
99.7372
99.735
99.7326
99.7301
99.7276
99.7253
99.7233
99.7217
99.7207
99.7205
99.7212
99.7228
99.7255
99.7292
99.7338
99.7393
99.7455
99.7523
99.7593
99.7663
99.7731
99.7796
99.7858
99.7916
99.7974
99.8031
99.8092
99.8157
99.8228
99.8303
99.838
99.8458
99.8534
99.8606
99.8673
99.8736
99.8798
99.886
99.8925
99.8991
99.9059
99.9126
99.919
99.9249
99.93
99.9342
99.9376
99.9401
99.9417
99.9425
99.9426
99.9422
99.9413
99.9404
99.9396
99.9391
99.9389
99.939
99.9394
99.9401
99.9411
99.9428
99.9456
99.9496
99.9553
99.9627
99.9716
99.9815
99.992
100.002
100.012
100.021
100.029
100.036
100.043
100.048
100.054
100.059
100.063
100.068
100.072
100.075
100.079
100.083
100.087
100.091
100.096
100.101
100.107
100.113
100.119
100.125
100.131
100.137
100.142
100.148
100.153
100.158
100.163
100.167
100.172
100.176
100.181
100.185
100.189
100.194
100.199
100.203
100.209
100.214
100.22
100.226
100.232
100.239
100.246
100.254
100.261
100.269
100.276
100.284
100.291
100.299
100.306
100.314
100.321
100.328
100.335
100.341
100.348
100.355
100.362
100.369
100.376
100.382
100.389
100.396
100.404
100.411
100.418
100.424
100.431
100.438
100.444
100.45
100.456
100.461
100.466
100.471
100.475
100.479
100.483
100.487
100.49
100.493
100.497
100.5
100.503
100.506
100.51
100.513
100.516
100.52
100.523
100.527
100.53
100.533
100.536
100.538
100.541
100.543
100.544
100.546
100.546
100.547
100.547
100.546
100.546
100.545
100.544
100.543
100.541
100.54
100.539
100.539
100.538
100.538
100.539
100.54
100.542
100.544
100.546
100.55
100.553
100.557
100.562
100.567
100.572
100.578
100.584
100.589
100.596
100.602
100.608
100.614
100.62
100.627
100.633
100.639
100.646
100.652
100.659
100.665
100.671
100.678
100.684
100.69
100.696
100.702
100.708
100.714
100.719
100.724
100.729
100.733
100.737
100.74
100.744
100.746
100.749
100.751
100.752
100.754
100.755
100.756
100.756
100.756
99.7578
99.7574
99.7569
99.7561
99.7551
99.7539
99.7526
99.7511
99.7495
99.7478
99.7463
99.7448
99.7435
99.7424
99.7414
99.7406
99.7398
99.7391
99.7382
99.7372
99.736
99.7345
99.7329
99.731
99.729
99.7271
99.7254
99.724
99.723
99.7228
99.7233
99.7247
99.7271
99.7306
99.735
99.7403
99.7463
99.7529
99.7599
99.7669
99.7738
99.7804
99.7866
99.7926
99.7984
99.8042
99.8102
99.8166
99.8235
99.8307
99.8381
99.8455
99.8526
99.8594
99.8656
99.8716
99.8774
99.8834
99.8896
99.8963
99.9031
99.9101
99.9168
99.923
99.9285
99.9333
99.9371
99.9401
99.9423
99.9436
99.9441
99.944
99.9436
99.9429
99.9424
99.942
99.9418
99.9419
99.9422
99.9427
99.9435
99.945
99.9474
99.9513
99.9568
99.9641
99.9729
99.9829
99.9935
100.004
100.014
100.023
100.031
100.038
100.044
100.05
100.055
100.06
100.064
100.068
100.072
100.075
100.078
100.082
100.086
100.09
100.094
100.1
100.105
100.111
100.117
100.123
100.129
100.135
100.141
100.146
100.152
100.157
100.162
100.166
100.171
100.176
100.18
100.185
100.189
100.194
100.199
100.204
100.209
100.214
100.22
100.226
100.233
100.24
100.247
100.254
100.261
100.269
100.276
100.284
100.291
100.299
100.306
100.313
100.321
100.328
100.334
100.341
100.348
100.355
100.362
100.368
100.375
100.382
100.389
100.396
100.403
100.41
100.417
100.424
100.431
100.438
100.444
100.45
100.456
100.461
100.466
100.471
100.475
100.479
100.483
100.487
100.49
100.493
100.497
100.5
100.503
100.506
100.51
100.513
100.516
100.52
100.523
100.526
100.53
100.533
100.535
100.538
100.54
100.543
100.544
100.545
100.546
100.547
100.547
100.547
100.546
100.545
100.544
100.543
100.542
100.541
100.54
100.539
100.539
100.539
100.54
100.541
100.542
100.544
100.547
100.55
100.553
100.558
100.562
100.567
100.572
100.578
100.583
100.589
100.595
100.601
100.607
100.614
100.62
100.626
100.633
100.639
100.645
100.652
100.658
100.665
100.671
100.678
100.684
100.69
100.696
100.702
100.708
100.714
100.719
100.724
100.729
100.733
100.737
100.741
100.744
100.747
100.749
100.751
100.753
100.754
100.755
100.756
100.756
100.756
99.7625
99.7618
99.7607
99.7592
99.7574
99.7552
99.7529
99.7504
99.7478
99.7454
99.7431
99.7411
99.7394
99.7381
99.7371
99.7364
99.736
99.7357
99.7354
99.7351
99.7345
99.7338
99.7328
99.7315
99.7301
99.7286
99.7272
99.726
99.7252
99.725
99.7254
99.7268
99.7291
99.7323
99.7366
99.7417
99.7476
99.7542
99.761
99.768
99.7749
99.7815
99.7878
99.7938
99.7995
99.8053
99.8112
99.8174
99.824
99.831
99.838
99.845
99.8517
99.858
99.8638
99.8694
99.875
99.8807
99.8869
99.8935
99.9004
99.9075
99.9145
99.921
99.927
99.9321
99.9365
99.9399
99.9425
99.9442
99.9452
99.9455
99.9454
99.9451
99.9448
99.9446
99.9447
99.9448
99.9451
99.9455
99.9462
99.9474
99.9497
99.9533
99.9587
99.9659
99.9747
99.9847
99.9953
100.006
100.016
100.025
100.033
100.04
100.046
100.051
100.056
100.061
100.065
100.068
100.072
100.075
100.078
100.081
100.084
100.088
100.093
100.098
100.103
100.109
100.115
100.121
100.127
100.133
100.139
100.144
100.15
100.155
100.16
100.165
100.17
100.175
100.18
100.184
100.189
100.194
100.199
100.204
100.209
100.215
100.22
100.227
100.233
100.24
100.247
100.254
100.262
100.269
100.277
100.284
100.292
100.299
100.306
100.314
100.321
100.328
100.334
100.341
100.348
100.355
100.361
100.368
100.375
100.382
100.389
100.396
100.403
100.41
100.417
100.424
100.431
100.437
100.444
100.45
100.455
100.461
100.466
100.471
100.475
100.479
100.483
100.487
100.49
100.493
100.497
100.5
100.503
100.506
100.509
100.513
100.516
100.519
100.523
100.526
100.529
100.532
100.535
100.538
100.54
100.542
100.544
100.545
100.546
100.547
100.547
100.547
100.546
100.545
100.545
100.544
100.542
100.541
100.541
100.54
100.54
100.54
100.54
100.541
100.543
100.545
100.547
100.55
100.554
100.558
100.562
100.567
100.572
100.577
100.583
100.589
100.595
100.601
100.607
100.613
100.62
100.626
100.632
100.639
100.645
100.652
100.658
100.664
100.671
100.677
100.684
100.69
100.696
100.702
100.708
100.714
100.719
100.724
100.729
100.733
100.737
100.741
100.744
100.747
100.749
100.751
100.753
100.754
100.755
100.756
100.756
100.757
99.7663
99.7653
99.7637
99.7616
99.7591
99.7561
99.7529
99.7496
99.7463
99.7431
99.7402
99.7377
99.7357
99.7342
99.7332
99.7326
99.7324
99.7325
99.7327
99.7328
99.7329
99.7327
99.7323
99.7316
99.7307
99.7296
99.7286
99.7277
99.7271
99.727
99.7276
99.729
99.7312
99.7345
99.7386
99.7437
99.7496
99.756
99.7628
99.7698
99.7766
99.7832
99.7894
99.7952
99.8008
99.8064
99.8121
99.8181
99.8244
99.8309
99.8376
99.8442
99.8505
99.8564
99.8619
99.8672
99.8725
99.8781
99.8842
99.8908
99.8978
99.9051
99.9123
99.9191
99.9254
99.9309
99.9356
99.9394
99.9424
99.9445
99.9458
99.9465
99.9468
99.9468
99.9469
99.947
99.9473
99.9476
99.948
99.9484
99.949
99.9501
99.9522
99.9557
99.961
99.9681
99.9769
99.9868
99.9974
100.008
100.018
100.027
100.035
100.042
100.048
100.053
100.057
100.062
100.065
100.068
100.071
100.074
100.077
100.079
100.083
100.086
100.091
100.095
100.101
100.107
100.113
100.119
100.125
100.131
100.137
100.143
100.148
100.154
100.159
100.164
100.169
100.174
100.179
100.184
100.189
100.194
100.198
100.204
100.209
100.215
100.221
100.227
100.234
100.24
100.247
100.255
100.262
100.27
100.277
100.285
100.292
100.299
100.307
100.314
100.321
100.328
100.335
100.341
100.348
100.355
100.361
100.368
100.375
100.382
100.389
100.396
100.403
100.41
100.417
100.424
100.43
100.437
100.443
100.449
100.455
100.46
100.466
100.47
100.475
100.479
100.483
100.486
100.49
100.493
100.496
100.5
100.503
100.506
100.509
100.513
100.516
100.519
100.523
100.526
100.529
100.532
100.535
100.538
100.54
100.542
100.544
100.545
100.546
100.547
100.547
100.547
100.547
100.546
100.545
100.544
100.543
100.542
100.541
100.541
100.54
100.54
100.541
100.542
100.543
100.545
100.548
100.55
100.554
100.558
100.562
100.567
100.572
100.577
100.583
100.589
100.594
100.6
100.607
100.613
100.619
100.625
100.632
100.638
100.645
100.651
100.658
100.664
100.671
100.677
100.684
100.69
100.696
100.702
100.708
100.714
100.719
100.724
100.729
100.733
100.737
100.741
100.744
100.747
100.749
100.751
100.753
100.754
100.755
100.756
100.757
100.757
99.7689
99.7677
99.7658
99.7633
99.7601
99.7566
99.7527
99.7488
99.7448
99.7411
99.7377
99.7348
99.7325
99.7308
99.7297
99.7292
99.7291
99.7294
99.7299
99.7305
99.731
99.7313
99.7314
99.7312
99.7307
99.7301
99.7295
99.729
99.7287
99.7289
99.7297
99.7312
99.7336
99.737
99.7412
99.7463
99.7522
99.7586
99.7653
99.7722
99.7789
99.7853
99.7913
99.7969
99.8022
99.8075
99.8129
99.8185
99.8244
99.8306
99.8369
99.8432
99.8491
99.8547
99.8599
99.865
99.8702
99.8757
99.8817
99.8884
99.8955
99.9029
99.9103
99.9174
99.9239
99.9296
99.9346
99.9386
99.9419
99.9443
99.9459
99.947
99.9476
99.9481
99.9485
99.949
99.9496
99.9502
99.9508
99.9513
99.9519
99.953
99.955
99.9584
99.9636
99.9706
99.9793
99.9892
99.9997
100.01
100.02
100.029
100.037
100.043
100.049
100.054
100.058
100.062
100.065
100.068
100.071
100.073
100.075
100.078
100.081
100.084
100.088
100.093
100.098
100.104
100.11
100.116
100.123
100.129
100.135
100.141
100.146
100.152
100.158
100.163
100.168
100.173
100.178
100.183
100.188
100.193
100.198
100.204
100.209
100.215
100.221
100.227
100.234
100.241
100.248
100.255
100.263
100.27
100.278
100.285
100.292
100.3
100.307
100.314
100.321
100.328
100.335
100.341
100.348
100.355
100.361
100.368
100.375
100.382
100.389
100.395
100.402
100.409
100.416
100.423
100.43
100.437
100.443
100.449
100.455
100.46
100.465
100.47
100.474
100.479
100.482
100.486
100.49
100.493
100.496
100.499
100.503
100.506
100.509
100.512
100.516
100.519
100.522
100.526
100.529
100.532
100.535
100.538
100.54
100.542
100.544
100.545
100.546
100.547
100.547
100.547
100.547
100.546
100.546
100.545
100.544
100.543
100.542
100.541
100.541
100.541
100.542
100.542
100.544
100.546
100.548
100.551
100.554
100.558
100.562
100.567
100.572
100.577
100.582
100.588
100.594
100.6
100.606
100.612
100.619
100.625
100.631
100.638
100.644
100.651
100.657
100.664
100.67
100.677
100.683
100.69
100.696
100.702
100.708
100.714
100.719
100.724
100.729
100.733
100.737
100.741
100.744
100.747
100.749
100.751
100.753
100.754
100.755
100.756
100.757
100.757
99.7704
99.769
99.7669
99.764
99.7605
99.7565
99.7523
99.7479
99.7435
99.7394
99.7357
99.7325
99.7299
99.728
99.7268
99.7263
99.7263
99.7267
99.7273
99.7282
99.7289
99.7296
99.7301
99.7303
99.7303
99.7301
99.73
99.7299
99.73
99.7306
99.7318
99.7336
99.7363
99.7398
99.7443
99.7495
99.7554
99.7618
99.7685
99.7752
99.7817
99.7878
99.7935
99.7987
99.8037
99.8086
99.8135
99.8187
99.8242
99.83
99.8359
99.8418
99.8475
99.8528
99.8579
99.8629
99.868
99.8735
99.8795
99.8863
99.8935
99.9011
99.9086
99.9158
99.9224
99.9283
99.9334
99.9376
99.941
99.9436
99.9455
99.9469
99.9479
99.9488
99.9496
99.9506
99.9516
99.9526
99.9534
99.9541
99.9548
99.9559
99.9579
99.9613
99.9664
99.9733
99.9819
99.9917
100.002
100.012
100.022
100.031
100.038
100.045
100.05
100.055
100.059
100.062
100.065
100.068
100.07
100.072
100.074
100.076
100.079
100.082
100.086
100.091
100.096
100.102
100.108
100.114
100.12
100.126
100.132
100.139
100.144
100.15
100.156
100.161
100.167
100.172
100.177
100.182
100.188
100.193
100.198
100.204
100.209
100.215
100.221
100.228
100.234
100.241
100.249
100.256
100.263
100.271
100.278
100.286
100.293
100.3
100.308
100.315
100.322
100.328
100.335
100.342
100.348
100.355
100.361
100.368
100.375
100.381
100.388
100.395
100.402
100.409
100.416
100.423
100.43
100.436
100.442
100.448
100.454
100.46
100.465
100.469
100.474
100.478
100.482
100.486
100.489
100.493
100.496
100.499
100.502
100.506
100.509
100.512
100.516
100.519
100.522
100.526
100.529
100.532
100.535
100.538
100.54
100.542
100.544
100.545
100.547
100.547
100.548
100.548
100.547
100.547
100.546
100.545
100.544
100.543
100.543
100.542
100.542
100.542
100.542
100.543
100.544
100.546
100.548
100.551
100.554
100.558
100.562
100.567
100.572
100.577
100.582
100.588
100.593
100.599
100.605
100.612
100.618
100.624
100.631
100.637
100.644
100.65
100.657
100.663
100.67
100.677
100.683
100.69
100.696
100.702
100.708
100.714
100.719
100.724
100.729
100.733
100.737
100.741
100.744
100.747
100.749
100.751
100.753
100.754
100.756
100.756
100.757
100.757
99.7705
99.769
99.7668
99.7638
99.7601
99.756
99.7515
99.7469
99.7424
99.7381
99.7342
99.7308
99.728
99.726
99.7246
99.724
99.7239
99.7242
99.7249
99.7258
99.7268
99.7277
99.7284
99.729
99.7294
99.7297
99.7299
99.7303
99.731
99.7321
99.7337
99.7361
99.7392
99.7431
99.7478
99.7532
99.7592
99.7656
99.7722
99.7787
99.7849
99.7907
99.7959
99.8007
99.8051
99.8095
99.8139
99.8186
99.8237
99.8291
99.8346
99.8402
99.8457
99.8509
99.8559
99.8608
99.8659
99.8715
99.8777
99.8845
99.8919
99.8996
99.9072
99.9144
99.9211
99.927
99.9321
99.9364
99.9398
99.9425
99.9446
99.9462
99.9476
99.9489
99.9503
99.9517
99.9532
99.9546
99.9558
99.9567
99.9576
99.9588
99.9609
99.9642
99.9692
99.9761
99.9846