# vtk DataFile Version 2.0
HPC Tutorials: Michael Bader, Kaveh Rahnema, Oliver Meister
ASCII
DATASET RECTILINEAR_GRID
DIMENSIONS 257 257 1
X_COORDINATES 257 float
0
0.005
0.01
0.015
0.02
0.025
0.03
0.035
0.04
0.045
0.05
0.055
0.06
0.065
0.07
0.075
0.08
0.085
0.09
0.095
0.1
0.105
0.11
0.115
0.12
0.125
0.13
0.135
0.14
0.145
0.15
0.155
0.16
0.165
0.17
0.175
0.18
0.185
0.19
0.195
0.2
0.205
0.21
0.215
0.22
0.225
0.23
0.235
0.24
0.245
0.25
0.255
0.26
0.265
0.27
0.275
0.28
0.285
0.29
0.295
0.3
0.305
0.31
0.315
0.32
0.325
0.33
0.335
0.34
0.345
0.35
0.355
0.36
0.365
0.37
0.375
0.38
0.385
0.39
0.395
0.4
0.405
0.41
0.415
0.42
0.425
0.43
0.435
0.44
0.445
0.45
0.455
0.46
0.465
0.47
0.475
0.48
0.485
0.49
0.495
0.5
0.505
0.51
0.515
0.52
0.525
0.53
0.535
0.54
0.545
0.55
0.555
0.56
0.565
0.57
0.575
0.58
0.585
0.59
0.595
0.6
0.605
0.61
0.615
0.62
0.625
0.63
0.635
0.64
0.645
0.65
0.655
0.66
0.665
0.67
0.675
0.68
0.685
0.69
0.695
0.7
0.705
0.71
0.715
0.72
0.725
0.73
0.735
0.74
0.745
0.75
0.755
0.76
0.765
0.77
0.775
0.78
0.785
0.79
0.795
0.8
0.805
0.81
0.815
0.82
0.825
0.83
0.835
0.84
0.845
0.85
0.855
0.86
0.865
0.87
0.875
0.88
0.885
0.89
0.895
0.9
0.905
0.91
0.915
0.92
0.925
0.93
0.935
0.94
0.945
0.95
0.955
0.96
0.965
0.97
0.975
0.98
0.985
0.99
0.995
1
1.005
1.01
1.015
1.02
1.025
1.03
1.035
1.04
1.045
1.05
1.055
1.06
1.065
1.07
1.075
1.08
1.085
1.09
1.095
1.1
1.105
1.11
1.115
1.12
1.125
1.13
1.135
1.14
1.145
1.15
1.155
1.16
1.165
1.17
1.175
1.18
1.185
1.19
1.195
1.2
1.205
1.21
1.215
1.22
1.225
1.23
1.235
1.24
1.245
1.25
1.255
1.26
1.265
1.27
1.275
1.28
Y_COORDINATES 257 float
0
0.005
0.01
0.015
0.02
0.025
0.03
0.035
0.04
0.045
0.05
0.055
0.06
0.065
0.07
0.075
0.08
0.085
0.09
0.095
0.1
0.105
0.11
0.115
0.12
0.125
0.13
0.135
0.14
0.145
0.15
0.155
0.16
0.165
0.17
0.175
0.18
0.185
0.19
0.195
0.2
0.205
0.21
0.215
0.22
0.225
0.23
0.235
0.24
0.245
0.25
0.255
0.26
0.265
0.27
0.275
0.28
0.285
0.29
0.295
0.3
0.305
0.31
0.315
0.32
0.325
0.33
0.335
0.34
0.345
0.35
0.355
0.36
0.365
0.37
0.375
0.38
0.385
0.39
0.395
0.4
0.405
0.41
0.415
0.42
0.425
0.43
0.435
0.44
0.445
0.45
0.455
0.46
0.465
0.47
0.475
0.48
0.485
0.49
0.495
0.5
0.505
0.51
0.515
0.52
0.525
0.53
0.535
0.54
0.545
0.55
0.555
0.56
0.565
0.57
0.575
0.58
0.585
0.59
0.595
0.6
0.605
0.61
0.615
0.62
0.625
0.63
0.635
0.64
0.645
0.65
0.655
0.66
0.665
0.67
0.675
0.68
0.685
0.69
0.695
0.7
0.705
0.71
0.715
0.72
0.725
0.73
0.735
0.74
0.745
0.75
0.755
0.76
0.765
0.77
0.775
0.78
0.785
0.79
0.795
0.8
0.805
0.81
0.815
0.82
0.825
0.83
0.835
0.84
0.845
0.85
0.855
0.86
0.865
0.87
0.875
0.88
0.885
0.89
0.895
0.9
0.905
0.91
0.915
0.92
0.925
0.93
0.935
0.94
0.945
0.95
0.955
0.96
0.965
0.97
0.975
0.98
0.985
0.99
0.995
1
1.005
1.01
1.015
1.02
1.025
1.03
1.035
1.04
1.045
1.05
1.055
1.06
1.065
1.07
1.075
1.08
1.085
1.09
1.095
1.1
1.105
1.11
1.115
1.12
1.125
1.13
1.135
1.14
1.145
1.15
1.155
1.16
1.165
1.17
1.175
1.18
1.185
1.19
1.195
1.2
1.205
1.21
1.215
1.22
1.225
1.23
1.235
1.24
1.245
1.25
1.255
1.26
1.265
1.27
1.275
1.28
Z_COORDINATES 1 float
0
CELL_DATA 65536
SCALARS H float 1
LOOKUP_TABLE default
100.326
100.326
100.327
100.328
100.329
100.331
100.332
100.334
100.336
100.339
100.342
100.345
100.349
100.354
100.36
100.366
100.373
100.382
100.391
100.402
100.414
100.427
100.441
100.456
100.472
100.488
100.504
100.52
100.536
100.551
100.565
100.577
100.586
100.593
100.597
100.597
100.593
100.585
100.574
100.557
100.537
100.513
100.486
100.455
100.421
100.385
100.347
100.307
100.267
100.226
100.185
100.144
100.105
100.067
100.03
99.9956
99.9635
99.9342
99.9079
99.8848
99.8653
99.8494
99.8375
99.8294
99.8255
99.8255
99.8295
99.8373
99.8488
99.8635
99.8813
99.9016
99.9241
99.9482
99.9733
99.9989
100.024
100.05
100.074
100.096
100.117
100.136
100.153
100.167
100.18
100.19
100.199
100.205
100.21
100.214
100.217
100.218
100.219
100.22
100.221
100.222
100.223
100.224
100.226
100.229
100.233
100.237
100.242
100.249
100.256
100.265
100.275
100.286
100.298
100.311
100.324
100.339
100.355
100.37
100.387
100.404
100.42
100.437
100.454
100.47
100.486
100.501
100.516
100.529
100.542
100.553
100.564
100.573
100.581
100.588
100.594
100.598
100.602
100.604
100.606
100.607
100.607
100.607
100.607
100.606
100.606
100.605
100.605
100.605
100.605
100.605
100.606
100.608
100.609
100.612
100.614
100.617
100.621
100.624
100.628
100.632
100.636
100.641
100.645
100.649
100.654
100.658
100.662
100.666
100.67
100.674
100.678
100.681
100.685
100.688
100.692
100.695
100.698
100.702
100.705
100.708
100.712
100.715
100.718
100.722
100.725
100.729
100.732
100.736
100.74
100.743
100.747
100.751
100.755
100.759
100.762
100.766
100.77
100.774
100.777
100.781
100.784
100.788
100.791
100.794
100.797
100.799
100.801
100.803
100.805
100.806
100.807
100.807
100.807
100.807
100.806
100.805
100.803
100.8
100.797
100.793
100.789
100.784
100.779
100.773
100.766
100.759
100.751
100.743
100.734
100.724
100.714
100.704
100.693
100.682
100.67
100.658
100.646
100.633
100.621
100.608
100.596
100.583
100.571
100.559
100.547
100.535
100.524
100.513
100.503
100.493
100.485
100.476
100.469
100.463
100.457
100.452
100.449
100.446
100.444
100.444
100.327
100.328
100.328
100.329
100.33
100.332
100.334
100.335
100.338
100.34
100.343
100.347
100.351
100.356
100.361
100.368
100.375
100.384
100.393
100.404
100.416
100.429
100.443
100.457
100.472
100.488
100.504
100.52
100.535
100.549
100.562
100.573
100.582
100.588
100.591
100.59
100.586
100.578
100.566
100.55
100.53
100.506
100.479
100.448
100.415
100.379
100.342
100.303
100.264
100.224
100.184
100.144
100.105
100.068
100.032
99.9983
99.967
99.9383
99.9127
99.8903
99.8713
99.856
99.8445
99.8368
99.8331
99.8333
99.8373
99.8449
99.856
99.8703
99.8873
99.9069
99.9283
99.9513
99.9752
99.9996
100.024
100.048
100.071
100.093
100.113
100.131
100.147
100.162
100.174
100.185
100.193
100.2
100.206
100.21
100.213
100.215
100.217
100.218
100.22
100.221
100.222
100.224
100.226
100.229
100.233
100.237
100.243
100.249
100.257
100.266
100.276
100.287
100.299
100.312
100.325
100.34
100.355
100.371
100.388
100.404
100.421
100.438
100.454
100.471
100.486
100.501
100.516
100.529
100.541
100.553
100.563
100.572
100.58
100.587
100.593
100.597
100.601
100.604
100.605
100.606
100.607
100.607
100.607
100.606
100.606
100.605
100.605
100.605
100.605
100.606
100.607
100.608
100.61
100.612
100.615
100.618
100.621
100.625
100.629
100.633
100.637
100.641
100.645
100.65
100.654
100.658
100.662
100.666
100.67
100.674
100.678
100.682
100.685
100.689
100.692
100.696
100.699
100.702
100.706
100.709
100.712
100.716
100.719
100.722
100.726
100.729
100.733
100.737
100.74
100.744
100.748
100.751
100.755
100.759
100.763
100.767
100.77
100.774
100.778
100.781
100.785
100.788
100.791
100.794
100.797
100.8
100.802
100.804
100.805
100.807
100.808
100.808
100.808
100.808
100.807
100.805
100.803
100.801
100.798
100.794
100.79
100.785
100.78
100.774
100.767
100.76
100.752
100.744
100.735
100.725
100.715
100.705
100.694
100.683
100.671
100.659
100.647
100.635
100.622
100.61
100.597
100.585
100.572
100.56
100.548
100.536
100.525
100.515
100.504
100.495
100.486
100.478
100.47
100.464
100.458
100.454
100.45
100.447
100.446
100.445
100.33
100.33
100.331
100.332
100.333
100.334
100.336
100.338
100.34
100.342
100.346
100.349
100.354
100.359
100.364
100.371
100.378
100.387
100.397
100.407
100.419
100.431
100.445
100.459
100.474
100.489
100.504
100.518
100.532
100.546
100.557
100.567
100.574
100.579
100.581
100.58
100.575
100.566
100.554
100.537
100.517
100.494
100.467
100.438
100.406
100.371
100.335
100.298
100.26
100.221
100.182
100.144
100.106
100.07
100.036
100.003
99.9729
99.9454
99.9208
99.8994
99.8813
99.8668
99.8559
99.8487
99.8453
99.8456
99.8494
99.8567
99.8671
99.8804
99.8964
99.9145
99.9343
99.9555
99.9776
100
100.023
100.045
100.066
100.086
100.105
100.123
100.139
100.153
100.166
100.176
100.185
100.193
100.199
100.204
100.208
100.211
100.213
100.215
100.217
100.219
100.221
100.223
100.226
100.229
100.233
100.238
100.243
100.25
100.258
100.267
100.277
100.288
100.3
100.313
100.327
100.342
100.357
100.373
100.389
100.406
100.422
100.439
100.455
100.471
100.487
100.501
100.515
100.529
100.541
100.552
100.562
100.571
100.579
100.586
100.592
100.596
100.6
100.603
100.604
100.606
100.606
100.606
100.606
100.606
100.606
100.605
100.605
100.605
100.605
100.606
100.607
100.609
100.611
100.613
100.615
100.618
100.622
100.625
100.629
100.633
100.638
100.642
100.646
100.65
100.655
100.659
100.663
100.667
100.671
100.675
100.679
100.683
100.686
100.69
100.693
100.697
100.7
100.703
100.707
100.71
100.713
100.717
100.72
100.723
100.727
100.73
100.734
100.737
100.741
100.745
100.748
100.752
100.756
100.76
100.764
100.768
100.771
100.775
100.779
100.782
100.786
100.789
100.792
100.795
100.798
100.801
100.803
100.805
100.807
100.808
100.809
100.809
100.809
100.809
100.808
100.807
100.805
100.802
100.799
100.796
100.792
100.787
100.781
100.775
100.769
100.762
100.754
100.745
100.737
100.727
100.717
100.707
100.696
100.685
100.673
100.661
100.649
100.637
100.624
100.612
100.599
100.587
100.574
100.562
100.55
100.538
100.527
100.517
100.506
100.497
100.488
100.48
100.473
100.466
100.461
100.456
100.452
100.449
100.448
100.447
100.333
100.334
100.334
100.335
100.336
100.337
100.339
100.341
100.343
100.346
100.349
100.353
100.357
100.362
100.368
100.375
100.383
100.392
100.401
100.412
100.423
100.435
100.448
100.461
100.475
100.489
100.503
100.516
100.529
100.54
100.55
100.558
100.564
100.567
100.567
100.565
100.558
100.549
100.536
100.52
100.5
100.478
100.452
100.424
100.393
100.36
100.326
100.29
100.253
100.217
100.18
100.143
100.108
100.073
100.041
100.01
99.9814
99.9554
99.9323
99.9123
99.8955
99.8821
99.8721
99.8656
99.8625
99.8629
99.8664
99.8731
99.8826
99.8946
99.9088
99.9249
99.9426
99.9613
99.9809
100.001
100.021
100.041
100.06
100.078
100.096
100.112
100.128
100.141
100.154
100.165
100.174
100.183
100.19
100.196
100.2
100.205
100.208
100.211
100.214
100.216
100.219
100.222
100.225
100.229
100.233
100.238
100.244
100.251
100.26
100.269
100.279
100.29
100.302
100.315
100.329
100.344
100.359
100.375
100.391
100.407
100.424
100.44
100.456
100.472
100.487
100.502
100.515
100.528
100.54
100.551
100.561
100.57
100.578
100.584
100.59
100.595
100.598
100.601
100.603
100.604
100.605
100.606
100.606
100.606
100.605
100.605
100.605
100.605
100.606
100.607
100.608
100.61
100.611
100.614
100.617
100.62
100.623
100.627
100.63
100.634
100.639
100.643
100.647
100.652
100.656
100.66
100.664
100.669
100.673
100.676
100.68
100.684
100.688
100.691
100.695
100.698
100.701
100.705
100.708
100.711
100.715
100.718
100.721
100.725
100.728
100.732
100.735
100.739
100.742
100.746
100.75
100.754
100.757
100.761
100.765
100.769
100.773
100.776
100.78
100.784
100.787
100.79
100.794
100.797
100.799
100.802
100.804
100.806
100.808
100.809
100.81
100.811
100.811
100.811
100.81
100.809
100.807
100.804
100.801
100.798
100.794
100.789
100.784
100.778
100.771
100.764
100.756
100.748
100.739
100.729
100.72
100.709
100.698
100.687
100.676
100.664
100.652
100.639
100.627
100.614
100.602
100.589
100.577
100.565
100.553
100.541
100.53
100.519
100.509
100.5
100.491
100.483
100.475
100.469
100.463
100.459
100.455
100.452
100.451
100.45
100.338
100.338
100.338
100.339
100.34
100.341
100.343
100.345
100.347
100.35
100.353
100.357
100.362
100.368
100.374
100.381
100.388
100.397
100.407
100.417
100.428
100.44
100.452
100.464
100.477
100.489
100.502
100.513
100.524
100.533
100.541
100.547
100.55
100.551
100.55
100.545
100.538
100.528
100.515
100.498
100.479
100.457
100.433
100.406
100.377
100.346
100.313
100.28
100.246
100.211
100.177
100.143
100.11
100.078
100.047
100.019
99.9922
99.9683
99.9471
99.9288
99.9135
99.9014
99.8924
99.8867
99.884
99.8843
99.8875
99.8933
99.9015
99.9118
99.9239
99.9376
99.9525
99.9684
99.9849
100.002
100.019
100.036
100.053
100.069
100.085
100.1
100.114
100.127
100.14
100.151
100.161
100.17
100.178
100.185
100.191
100.196
100.201
100.205
100.209
100.212
100.216
100.22
100.224
100.228
100.233
100.239
100.245
100.253
100.261
100.271
100.281
100.293
100.305
100.318
100.332
100.347
100.362
100.378
100.393
100.41
100.426
100.442
100.457
100.473
100.488
100.502
100.515
100.528
100.539
100.55
100.56
100.568
100.576
100.582
100.588
100.593
100.596
100.599
100.601
100.603
100.604
100.605
100.605
100.605
100.605
100.605
100.605
100.606
100.607
100.608
100.609
100.611
100.613
100.615
100.618
100.621
100.624
100.628
100.632
100.636
100.64
100.644
100.649
100.653
100.657
100.662
100.666
100.67
100.674
100.678
100.682
100.686
100.689
100.693
100.696
100.7
100.703
100.707
100.71
100.713
100.716
100.72
100.723
100.726
100.73
100.733
100.737
100.74
100.744
100.748
100.751
100.755
100.759
100.763
100.767
100.77
100.774
100.778
100.782
100.785
100.789
100.792
100.795
100.798
100.801
100.804
100.806
100.808
100.81
100.811
100.812
100.813
100.813
100.813
100.812
100.811
100.809
100.807
100.804
100.8
100.796
100.791
100.786
100.78
100.774
100.766
100.759
100.75
100.742
100.732
100.722
100.712
100.701
100.69
100.678
100.667
100.654
100.642
100.63
100.617
100.605
100.592
100.58
100.568
100.556
100.544
100.533
100.522
100.512
100.503
100.494
100.486
100.479
100.472
100.467
100.462
100.458
100.456
100.454
100.453
100.343
100.343
100.343
100.344
100.345
100.346
100.348
100.35
100.352
100.355
100.359
100.363
100.368
100.374
100.38
100.387
100.395
100.404
100.413
100.423
100.434
100.445
100.456
100.467
100.478
100.489
100.5
100.509
100.517
100.524
100.529
100.533
100.534
100.533
100.529
100.523
100.514
100.503
100.489
100.473
100.454
100.433
100.41
100.384
100.357
100.329
100.299
100.268
100.237
100.205
100.173
100.142
100.112
100.083
100.055
100.029
100.005
99.9839
99.9649
99.9486
99.9351
99.9244
99.9166
99.9116
99.9092
99.9094
99.912
99.9167
99.9233
99.9315
99.9412
99.9521
99.964
99.9766
99.9897
100.003
100.017
100.031
100.045
100.059
100.073
100.086
100.099
100.112
100.124
100.135
100.145
100.155
100.164
100.172
100.179
100.186
100.192
100.197
100.202
100.207
100.212
100.216
100.221
100.227
100.233
100.239
100.247
100.255
100.264
100.273
100.284
100.296
100.308
100.322
100.336
100.35
100.365
100.381
100.396
100.412
100.428
100.444
100.459
100.474
100.488
100.502
100.515
100.527
100.538
100.549
100.558
100.566
100.574
100.58
100.586
100.59
100.594
100.597
100.599
100.601
100.602
100.603
100.604
100.604
100.605
100.605
100.606
100.606
100.607
100.609
100.61
100.612
100.614
100.617
100.62
100.623
100.626
100.63
100.634
100.638
100.642
100.646
100.651
100.655
100.659
100.664
100.668
100.672
100.676
100.68
100.684
100.688
100.691
100.695
100.698
100.702
100.705
100.709
100.712
100.715
100.719
100.722
100.725
100.729
100.732
100.735
100.739
100.743
100.746
100.75
100.754
100.757
100.761
100.765
100.769
100.773
100.776
100.78
100.784
100.787
100.791
100.794
100.798
100.801
100.804
100.806
100.809
100.811
100.812
100.814
100.815
100.815
100.816
100.815
100.815
100.813
100.812
100.809
100.806
100.803
100.799
100.794
100.789
100.783
100.776
100.769
100.762
100.753
100.744
100.735
100.725
100.715
100.704
100.693
100.682
100.67
100.658
100.645
100.633
100.621
100.608
100.596
100.583
100.571
100.559
100.548
100.537
100.526
100.516
100.507
100.498
100.49
100.482
100.476
100.47
100.466
100.462
100.459
100.458
100.457
100.348
100.349
100.349
100.35
100.35
100.352
100.353
100.355
100.358
100.361
100.365
100.37
100.375
100.381
100.387
100.395
100.403
100.411
100.42
100.43
100.44
100.45
100.46
100.47
100.48
100.489
100.497
100.504
100.509
100.513
100.516
100.516
100.515
100.511
100.505
100.497
100.487
100.475
100.461
100.444
100.426
100.406
100.384
100.36
100.335
100.309
100.282
100.254
100.226
100.198
100.169
100.142
100.115
100.089
100.064
100.041
100.021
100.002
99.9853
99.9713
99.9597
99.9506
99.944
99.9396
99.9375
99.9374
99.9391
99.9424
99.9472
99.9532
99.9602
99.968
99.9766
99.9858
99.9955
100.006
100.016
100.027
100.038
100.049
100.061
100.073
100.084
100.096
100.107
100.118
100.128
100.139
100.148
100.157
100.165
100.173
100.18
100.187
100.194
100.2
100.206
100.212
100.218
100.225
100.232
100.239
100.248
100.256
100.266
100.276
100.287
100.299
100.312
100.326
100.34
100.354
100.369
100.384
100.4
100.415
100.43
100.446
100.46
100.475
100.489
100.502
100.515
100.526
100.537
100.547
100.556
100.564
100.571
100.578
100.583
100.588
100.591
100.594
100.597
100.599
100.6
100.602
100.603
100.603
100.604
100.605
100.606
100.607
100.608
100.61
100.611
100.614
100.616
100.619
100.622
100.625
100.628
100.632
100.636
100.64
100.644
100.649
100.653
100.657
100.662
100.666
100.67
100.674
100.678
100.682
100.686
100.69
100.693
100.697
100.701
100.704
100.707
100.711
100.714
100.718
100.721
100.724
100.728
100.731
100.734
100.738
100.741
100.745
100.749
100.752
100.756
100.76
100.764
100.767
100.771
100.775
100.779
100.783
100.786
100.79
100.794
100.797
100.8
100.803
100.806
100.809
100.811
100.813
100.815
100.817
100.818
100.818
100.818
100.818
100.817
100.816
100.814
100.812
100.809
100.806
100.802
100.797
100.792
100.786
100.779
100.772
100.765
100.756
100.748
100.738
100.729
100.718
100.708
100.696
100.685
100.673
100.661
100.649
100.637
100.624
100.612
100.599
100.587
100.575
100.563
100.552
100.541
100.53
100.52
100.511
100.502
100.494
100.487
100.48
100.475
100.47
100.466
100.464
100.462
100.461
100.355
100.355
100.355
100.356
100.357
100.358
100.36
100.362
100.365
100.368
100.372
100.377
100.383
100.389
100.396
100.403
100.411
100.419
100.428
100.437
100.446
100.455
100.464
100.472
100.48
100.487
100.492
100.497
100.5
100.501
100.5
100.498
100.493
100.487
100.479
100.469
100.458
100.444
100.429
100.413
100.395
100.376
100.356
100.334
100.311
100.288
100.264
100.239
100.214
100.189
100.165
100.141
100.117
100.095
100.074
100.055
100.037
100.022
100.008
99.9964
99.9869
99.9793
99.9738
99.97
99.968
99.9674
99.9681
99.9698
99.9726
99.9761
99.9802
99.985
99.9902
99.9959
100.002
100.009
100.016
100.024
100.032
100.041
100.05
100.059
100.069
100.08
100.09
100.1
100.111
100.121
100.131
100.141
100.15
100.159
100.168
100.176
100.184
100.191
100.199
100.207
100.214
100.222
100.23
100.239
100.248
100.258
100.268
100.279
100.291
100.303
100.316
100.33
100.344
100.358
100.373
100.388
100.403
100.418
100.433
100.448
100.462
100.476
100.489
100.502
100.514
100.525
100.536
100.545
100.554
100.562
100.569
100.575
100.58
100.585
100.588
100.592
100.594
100.596
100.598
100.6
100.601
100.602
100.603
100.605
100.606
100.607
100.609
100.611
100.613
100.615
100.618
100.621
100.624
100.627
100.631
100.635
100.639
100.643
100.647
100.651
100.656
100.66
100.664
100.668
100.672
100.677
100.681
100.685
100.688
100.692
100.696
100.699
100.703
100.707
100.71
100.713
100.717
100.72
100.723
100.727
100.73
100.734
100.737
100.741
100.744
100.748
100.751
100.755
100.759
100.763
100.767
100.77
100.774
100.778
100.782
100.786
100.789
100.793
100.796
100.8
100.803
100.806
100.809
100.812
100.814
100.816
100.818
100.82
100.821
100.821
100.821
100.821
100.821
100.819
100.818
100.815
100.812
100.809
100.805
100.8
100.795
100.789
100.783
100.776
100.768
100.76
100.751
100.742
100.732
100.722
100.711
100.7
100.689
100.677
100.665
100.653
100.641
100.628
100.616
100.604
100.591
100.579
100.568
100.556
100.545
100.535
100.525
100.515
100.507
100.499
100.491
100.485
100.48
100.475
100.471
100.469
100.467
100.466
100.362
100.362
100.362
100.363
100.364
100.365
100.367
100.37
100.373
100.376
100.381
100.386
100.391
100.398
100.405
100.412
100.42
100.428
100.436
100.444
100.453
100.46
100.468
100.474
100.48
100.484
100.487
100.488
100.488
100.486
100.483
100.477
100.47
100.461
100.451
100.439
100.426
100.412
100.396
100.38
100.363
100.344
100.325
100.306
100.286
100.265
100.244
100.223
100.202
100.181
100.16
100.14
100.121
100.102
100.085
100.07
100.056
100.043
100.032
100.023
100.016
100.01
100.005
100.002
99.9999
99.9986
99.9981
99.9982
99.9988
99.9998
100.001
100.003
100.005
100.007
100.01
100.013
100.017
100.022
100.027
100.033
100.04
100.047
100.056
100.064
100.074
100.083
100.093
100.103
100.113
100.124
100.134
100.143
100.153
100.163
100.172
100.181
100.19
100.2
100.209
100.218
100.228
100.238
100.248
100.259
100.271
100.282
100.295
100.308
100.321
100.335
100.349
100.363
100.378
100.393
100.407
100.422
100.436
100.45
100.464
100.477
100.49
100.502
100.514
100.524
100.534
100.543
100.552
100.559
100.566
100.572
100.577
100.581
100.585
100.588
100.591
100.594
100.596
100.598
100.6
100.601
100.603
100.604
100.606
100.608
100.61
100.612
100.615
100.617
100.62
100.623
100.627
100.63
100.634
100.638
100.642
100.646
100.65
100.654
100.658
100.663
100.667
100.671
100.675
100.679
100.683
100.687
100.691
100.695
100.699
100.702
100.706
100.709
100.713
100.716
100.72
100.723
100.726
100.73
100.733
100.737
100.74
100.744
100.747
100.751
100.755
100.758
100.762
100.766
100.77
100.773
100.777
100.781
100.785
100.789
100.792
100.796
100.8
100.803
100.806
100.809
100.812
100.815
100.817
100.82
100.821
100.823
100.824
100.825
100.825
100.825
100.824
100.823
100.821
100.819
100.816
100.812
100.808
100.804
100.799
100.793
100.787
100.78
100.772
100.764
100.755
100.746
100.736
100.726
100.715
100.704
100.693
100.681
100.67
100.657
100.645
100.633
100.621
100.608
100.596
100.584
100.573
100.561
100.55
100.54
100.53
100.521
100.512
100.504
100.497
100.49
100.485
100.48
100.477
100.474
100.473
100.472
100.369
100.369
100.37
100.371
100.372
100.373
100.375
100.378
100.381
100.385
100.39
100.395
100.401
100.407
100.414
100.421
100.429
100.437
100.444
100.452
100.459
100.465
100.47
100.475
100.478
100.48
100.48
100.478
100.475
100.47
100.463
100.455
100.445
100.434
100.421
100.407
100.393
100.378
100.362
100.346
100.329
100.312
100.294
100.277
100.259
100.241
100.223
100.206
100.188
100.171
100.155
100.139
100.124
100.11
100.097
100.086
100.075
100.066
100.058
100.052
100.046
100.042
100.038
100.035
100.032
100.03
100.029
100.027
100.025
100.024
100.022
100.021
100.02
100.019
100.019
100.019
100.02
100.022
100.024
100.028
100.032
100.037
100.044
100.051
100.058
100.067
100.076
100.086
100.096
100.106
100.116
100.127
100.138
100.148
100.159
100.17
100.18
100.191
100.202
100.213
100.224
100.236
100.248
100.26
100.272
100.285
100.298
100.312
100.326
100.34
100.354
100.368
100.383
100.397
100.412
100.426
100.44
100.453
100.466
100.479
100.491
100.502
100.513
100.523
100.532
100.541
100.549
100.556
100.562
100.568
100.573
100.578
100.582
100.585
100.588
100.591
100.594
100.596
100.598
100.6
100.602
100.604
100.606
100.609
100.611
100.614
100.617
100.619
100.623
100.626
100.629
100.633
100.637
100.641
100.645
100.649
100.653
100.657
100.662
100.666
100.67
100.674
100.678
100.682
100.686
100.69
100.694
100.698
100.702
100.705
100.709
100.712
100.716
100.719
100.723
100.726
100.729
100.733
100.736
100.74
100.743
100.747
100.75
100.754
100.758
100.761
100.765
100.769
100.773
100.777
100.781
100.784
100.788
100.792
100.796
100.799
100.803
100.806
100.81
100.813
100.816
100.818
100.821
100.823
100.825
100.826
100.827
100.828
100.828
100.828
100.828
100.826
100.825
100.823
100.82
100.816
100.812
100.808
100.803
100.797
100.791
100.784
100.776
100.768
100.76
100.75
100.741
100.731
100.72
100.709
100.698
100.686
100.674
100.662
100.65
100.638
100.626
100.614
100.602
100.59
100.578
100.567
100.556
100.545
100.536
100.526
100.518
100.51
100.503
100.496
100.491
100.486
100.483
100.48
100.479
100.478
100.377
100.377
100.378
100.379
100.38
100.382
100.384
100.387
100.391
100.395
100.4
100.405
100.411
100.417
100.424
100.431
100.438
100.445
100.452
100.458
100.464
100.469
100.472
100.474
100.475
100.474
100.471
100.466
100.46
100.452
100.442
100.431
100.418
100.405
100.39
100.375
100.359
100.343
100.327
100.311
100.294
100.278
100.262
100.247
100.231
100.216
100.202
100.188
100.175
100.162
100.15
100.138
100.128
100.118
100.109
100.102
100.095
100.089
100.084
100.08
100.077
100.073
100.07
100.068
100.065
100.062
100.059
100.055
100.052
100.048
100.044
100.04
100.036
100.032
100.029
100.027
100.025
100.024
100.023
100.024
100.026
100.029
100.034
100.039
100.045
100.052
100.06
100.069
100.078
100.088
100.099
100.11
100.121
100.133
100.145
100.157
100.169
100.182
100.194
100.207
100.22
100.233
100.246
100.26
100.273
100.287
100.301
100.316
100.33
100.345
100.359
100.373
100.388
100.402
100.416
100.43
100.443
100.456
100.468
100.48
100.492
100.502
100.512
100.522
100.531
100.539
100.546
100.553
100.559
100.564
100.569
100.574
100.578
100.582
100.585
100.588
100.591
100.594
100.596
100.599
100.602
100.604
100.607
100.61
100.612
100.615
100.619
100.622
100.625
100.629
100.632
100.636
100.64
100.644
100.648
100.652
100.656
100.661
100.665
100.669
100.673
100.677
100.682
100.686
100.69
100.693
100.697
100.701
100.705
100.708
100.712
100.715
100.719
100.722
100.726
100.729
100.733
100.736
100.74
100.743
100.747
100.75
100.754
100.757
100.761
100.765
100.769
100.772
100.776
100.78
100.784
100.788
100.792
100.795
100.799
100.803
100.806
100.81
100.813
100.816
100.819
100.822
100.824
100.827
100.829
100.83
100.831
100.832
100.832
100.832
100.832
100.83
100.829
100.827
100.824
100.821
100.817
100.812
100.807
100.801
100.795
100.788
100.781
100.773
100.764
100.755
100.746
100.736
100.725
100.714
100.703
100.692
100.68
100.668
100.656
100.644
100.631
100.619
100.607
100.596
100.584
100.573
100.562
100.552
100.542
100.533
100.524
100.516
100.509
100.503
100.497
100.493
100.489
100.487
100.485
100.485
100.385
100.385
100.386
100.387
100.389
100.391
100.394
100.397
100.401
100.405
100.41
100.416
100.422
100.428
100.434
100.441
100.447
100.454
100.459
100.464
100.468
100.471
100.473
100.472
100.47
100.466
100.461
100.453
100.443
100.432
100.42
100.406
100.391
100.375
100.359
100.342
100.325
100.308
100.292
100.276
100.26
100.245
100.231
100.217
100.204
100.192
100.181
100.17
100.161
100.152
100.144
100.138
100.132
100.126
100.122
100.118
100.115
100.113
100.111
100.109
100.107
100.105
100.102
100.1
100.096
100.092
100.088
100.083
100.077
100.071
100.065
100.059
100.052
100.046
100.041
100.036
100.031
100.028
100.025
100.024
100.023
100.024
100.026
100.029
100.034
100.039
100.046
100.053
100.062
100.072
100.082
100.093
100.105
100.117
100.13
100.143
100.157
100.171
100.185
100.199
100.214
100.229
100.244
100.259
100.274
100.289
100.304
100.319
100.334
100.349
100.364
100.379
100.393
100.407
100.421
100.434
100.447
100.459
100.471
100.482
100.492
100.502
100.512
100.52
100.528
100.536
100.543
100.549
100.555
100.56
100.565
100.57
100.574
100.578
100.582
100.585
100.588
100.592
100.595
100.598
100.601
100.604
100.607
100.61
100.614
100.617
100.621
100.624
100.628
100.632
100.636
100.639
100.644
100.648
100.652
100.656
100.66
100.664
100.668
100.673
100.677
100.681
100.685
100.689
100.693
100.697
100.701
100.704
100.708
100.712
100.715
100.719
100.722
100.726
100.729
100.733
100.736
100.74
100.743
100.747
100.75
100.754
100.757
100.761
100.764
100.768
100.772
100.776
100.78
100.783
100.787
100.791
100.795
100.799
100.803
100.806
100.81
100.813
100.817
100.82
100.823
100.826
100.828
100.83
100.832
100.834
100.835
100.836
100.836
100.836
100.836
100.835
100.833
100.831
100.828
100.825
100.821
100.817
100.812
100.806
100.8
100.793
100.786
100.778
100.769
100.76
100.751
100.741
100.731
100.72
100.709
100.697
100.686
100.674
100.662
100.65
100.638
100.626
100.614
100.602
100.59
100.579
100.569
100.558
100.548
100.539
100.531
100.523
100.516
100.51
100.505
100.5
100.497
100.494
100.492
100.492
100.393
100.394
100.395
100.396
100.398
100.401
100.404
100.407
100.411
100.416
100.421
100.427
100.432
100.438
100.444
100.451
100.456
100.461
100.466
100.469
100.472
100.472
100.471
100.469
100.464
100.457
100.448
100.438
100.425
100.411
100.396
100.38
100.363
100.345
100.327
100.309
100.291
100.274
100.257
100.241
100.226
100.212
100.199
100.188
100.177
100.168
100.16
100.153
100.148
100.143
100.14
100.137
100.135
100.135
100.134
100.134
100.135
100.135
100.136
100.136
100.136
100.135
100.133
100.13
100.126
100.122
100.116
100.109
100.102
100.095
100.086
100.078
100.07
100.061
100.054
100.046
100.04
100.034
100.029
100.025
100.023
100.021
100.021
100.022
100.025
100.029
100.034
100.04
100.048
100.056
100.066
100.077
100.089
100.102
100.115
100.129
100.144
100.159
100.175
100.191
100.207
100.223
100.24
100.256
100.273
100.289
100.306
100.322
100.338
100.353
100.368
100.383
100.398
100.411
100.425
100.438
100.45
100.462
100.473
100.483
100.493
100.502
100.511
100.519
100.526
100.533
100.54
100.546
100.551
100.556
100.561
100.566
100.57
100.574
100.578
100.582
100.586
100.589
100.593
100.597
100.6
100.604
100.608
100.611
100.615
100.619
100.623
100.627
100.631
100.635
100.639
100.643
100.647
100.651
100.655
100.66
100.664
100.668
100.672
100.676
100.68
100.685
100.689
100.693
100.697
100.7
100.704
100.708
100.712
100.715
100.719
100.722
100.726
100.729
100.733
100.736
100.74
100.743
100.747
100.75
100.753
100.757
100.761
100.764
100.768
100.772
100.775
100.779
100.783
100.787
100.791
100.794
100.798
100.802
100.806
100.81
100.813
100.817
100.82
100.823
100.826
100.829
100.832
100.834
100.836
100.838
100.839
100.84
100.84
100.84
100.84
100.839
100.837
100.835
100.833
100.83
100.826
100.822
100.817
100.811
100.805
100.798
100.791
100.783
100.775
100.766
100.756
100.747
100.736
100.726
100.715
100.703
100.692
100.68
100.668
100.656
100.644
100.632
100.62
100.609
100.597
100.586
100.575
100.565
100.556
100.547
100.538
100.53
100.523
100.517
100.512
100.508
100.504
100.502
100.5
100.499
100.402
100.403
100.404
100.406
100.408
100.411
100.414
100.418
100.422
100.427
100.432
100.438
100.443
100.449
100.455
100.46
100.465
100.469
100.471
100.473
100.473
100.472
100.468
100.463
100.455
100.446
100.434
100.421
100.406
100.389
100.372
100.353
100.334
100.315
100.296
100.276
100.258
100.24
100.224
100.208
100.194
100.181
100.17
100.16
100.152
100.145
100.14
100.137
100.135
100.135
100.135
100.137
100.139
100.143
100.146
100.15
100.154
100.157
100.16
100.162
100.163
100.162
100.161
100.158
100.154
100.149
100.142
100.135
100.126
100.117
100.107
100.097
100.087
100.077
100.068
100.059
100.05
100.042
100.035
100.03
100.025
100.021
100.019
100.018
100.019
100.021
100.024
100.029