# vtk DataFile Version 2.0
HPC Tutorials: Michael Bader, Kaveh Rahnema, Oliver Meister
ASCII
DATASET RECTILINEAR_GRID
DIMENSIONS 257 257 1
X_COORDINATES 257 float
0
0.005
0.01
0.015
0.02
0.025
0.03
0.035
0.04
0.045
0.05
0.055
0.06
0.065
0.07
0.075
0.08
0.085
0.09
0.095
0.1
0.105
0.11
0.115
0.12
0.125
0.13
0.135
0.14
0.145
0.15
0.155
0.16
0.165
0.17
0.175
0.18
0.185
0.19
0.195
0.2
0.205
0.21
0.215
0.22
0.225
0.23
0.235
0.24
0.245
0.25
0.255
0.26
0.265
0.27
0.275
0.28
0.285
0.29
0.295
0.3
0.305
0.31
0.315
0.32
0.325
0.33
0.335
0.34
0.345
0.35
0.355
0.36
0.365
0.37
0.375
0.38
0.385
0.39
0.395
0.4
0.405
0.41
0.415
0.42
0.425
0.43
0.435
0.44
0.445
0.45
0.455
0.46
0.465
0.47
0.475
0.48
0.485
0.49
0.495
0.5
0.505
0.51
0.515
0.52
0.525
0.53
0.535
0.54
0.545
0.55
0.555
0.56
0.565
0.57
0.575
0.58
0.585
0.59
0.595
0.6
0.605
0.61
0.615
0.62
0.625
0.63
0.635
0.64
0.645
0.65
0.655
0.66
0.665
0.67
0.675
0.68
0.685
0.69
0.695
0.7
0.705
0.71
0.715
0.72
0.725
0.73
0.735
0.74
0.745
0.75
0.755
0.76
0.765
0.77
0.775
0.78
0.785
0.79
0.795
0.8
0.805
0.81
0.815
0.82
0.825
0.83
0.835
0.84
0.845
0.85
0.855
0.86
0.865
0.87
0.875
0.88
0.885
0.89
0.895
0.9
0.905
0.91
0.915
0.92
0.925
0.93
0.935
0.94
0.945
0.95
0.955
0.96
0.965
0.97
0.975
0.98
0.985
0.99
0.995
1
1.005
1.01
1.015
1.02
1.025
1.03
1.035
1.04
1.045
1.05
1.055
1.06
1.065
1.07
1.075
1.08
1.085
1.09
1.095
1.1
1.105
1.11
1.115
1.12
1.125
1.13
1.135
1.14
1.145
1.15
1.155
1.16
1.165
1.17
1.175
1.18
1.185
1.19
1.195
1.2
1.205
1.21
1.215
1.22
1.225
1.23
1.235
1.24
1.245
1.25
1.255
1.26
1.265
1.27
1.275
1.28
Y_COORDINATES 257 float
0
0.005
0.01
0.015
0.02
0.025
0.03
0.035
0.04
0.045
0.05
0.055
0.06
0.065
0.07
0.075
0.08
0.085
0.09
0.095
0.1
0.105
0.11
0.115
0.12
0.125
0.13
0.135
0.14
0.145
0.15
0.155
0.16
0.165
0.17
0.175
0.18
0.185
0.19
0.195
0.2
0.205
0.21
0.215
0.22
0.225
0.23
0.235
0.24
0.245
0.25
0.255
0.26
0.265
0.27
0.275
0.28
0.285
0.29
0.295
0.3
0.305
0.31
0.315
0.32
0.325
0.33
0.335
0.34
0.345
0.35
0.355
0.36
0.365
0.37
0.375
0.38
0.385
0.39
0.395
0.4
0.405
0.41
0.415
0.42
0.425
0.43
0.435
0.44
0.445
0.45
0.455
0.46
0.465
0.47
0.475
0.48
0.485
0.49
0.495
0.5
0.505
0.51
0.515
0.52
0.525
0.53
0.535
0.54
0.545
0.55
0.555
0.56
0.565
0.57
0.575
0.58
0.585
0.59
0.595
0.6
0.605
0.61
0.615
0.62
0.625
0.63
0.635
0.64
0.645
0.65
0.655
0.66
0.665
0.67
0.675
0.68
0.685
0.69
0.695
0.7
0.705
0.71
0.715
0.72
0.725
0.73
0.735
0.74
0.745
0.75
0.755
0.76
0.765
0.77
0.775
0.78
0.785
0.79
0.795
0.8
0.805
0.81
0.815
0.82
0.825
0.83
0.835
0.84
0.845
0.85
0.855
0.86
0.865
0.87
0.875
0.88
0.885
0.89
0.895
0.9
0.905
0.91
0.915
0.92
0.925
0.93
0.935
0.94
0.945
0.95
0.955
0.96
0.965
0.97
0.975
0.98
0.985
0.99
0.995
1
1.005
1.01
1.015
1.02
1.025
1.03
1.035
1.04
1.045
1.05
1.055
1.06
1.065
1.07
1.075
1.08
1.085
1.09
1.095
1.1
1.105
1.11
1.115
1.12
1.125
1.13
1.135
1.14
1.145
1.15
1.155
1.16
1.165
1.17
1.175
1.18
1.185
1.19
1.195
1.2
1.205
1.21
1.215
1.22
1.225
1.23
1.235
1.24
1.245
1.25
1.255
1.26
1.265
1.27
1.275
1.28
Z_COORDINATES 1 float
0
CELL_DATA 65536
SCALARS H float 1
LOOKUP_TABLE default
101.503
101.493
101.479
101.46
101.438
101.414
101.39
101.366
101.346
101.33
101.32
101.317
101.321
101.332
101.349
101.37
101.393
101.416
101.436
101.452
101.461
101.464
101.461
101.452
101.438
101.42
101.4
101.379
101.358
101.338
101.319
101.302
101.287
101.276
101.268
101.264
101.265
101.271
101.281
101.295
101.312
101.33
101.348
101.364
101.376
101.382
101.383
101.377
101.366
101.349
101.329
101.306
101.281
101.257
101.233
101.21
101.19
101.172
101.157
101.145
101.138
101.134
101.134
101.139
101.146
101.156
101.166
101.177
101.185
101.191
101.193
101.191
101.186
101.177
101.166
101.153
101.139
101.126
101.113
101.101
101.09
101.082
101.075
101.07
101.067
101.067
101.069
101.073
101.08
101.089
101.1
101.112
101.124
101.136
101.146
101.154
101.16
101.162
101.162
101.158
101.151
101.142
101.13
101.117
101.102
101.087
101.071
101.055
101.04
101.026
101.014
101.004
100.997
100.993
100.992
100.993
100.995
100.998
101
101
100.999
100.995
100.989
100.98
100.97
100.959
100.947
100.935
100.924
100.914
100.905
100.897
100.891
100.886
100.884
100.882
100.883
100.886
100.89
100.895
100.901
100.907
100.912
100.916
100.918
100.918
100.915
100.91
100.903
100.894
100.884
100.873
100.862
100.85
100.839
100.828
100.818
100.808
100.8
100.792
100.786
100.782
100.78
100.779
100.78
100.782
100.785
100.787
100.789
100.788
100.786
100.781
100.773
100.763
100.751
100.737
100.724
100.71
100.698
100.688
100.68
100.674
100.672
100.674
100.679
100.687
100.697
100.71
100.723
100.736
100.748
100.76
100.77
100.779
100.786
100.79
100.792
100.789
100.783
100.775
100.765
100.754
100.743
100.732
100.722
100.711
100.703
100.695
100.69
100.686
100.685
100.685
100.688
100.691
100.696
100.7
100.705
100.708
100.711
100.712
100.713
100.711
100.709
100.706
100.702
100.697
100.692
100.686
100.681
100.676
100.673
100.67
100.668
100.667
100.668
100.668
100.669
100.671
100.672
100.674
100.675
100.677
100.678
100.679
100.68
100.68
100.68
100.68
100.679
100.678
100.677
100.676
100.675
100.674
100.674
100.673
101.493
101.484
101.471
101.453
101.433
101.411
101.389
101.367
101.349
101.335
101.326
101.324
101.329
101.339
101.356
101.375
101.397
101.417
101.436
101.449
101.458
101.46
101.456
101.446
101.433
101.416
101.396
101.376
101.356
101.336
101.318
101.302
101.289
101.279
101.272
101.269
101.271
101.276
101.286
101.3
101.315
101.332
101.349
101.363
101.373
101.379
101.379
101.372
101.361
101.345
101.325
101.303
101.279
101.255
101.232
101.21
101.191
101.173
101.159
101.148
101.141
101.138
101.138
101.142
101.149
101.158
101.167
101.176
101.184
101.189
101.19
101.188
101.183
101.174
101.163
101.151
101.138
101.124
101.112
101.1
101.091
101.082
101.076
101.071
101.069
101.069
101.072
101.076
101.083
101.092
101.103
101.114
101.125
101.136
101.145
101.153
101.157
101.159
101.158
101.154
101.147
101.138
101.127
101.114
101.1
101.085
101.07
101.055
101.04
101.028
101.016
101.007
101.001
100.997
100.995
100.996
100.997
100.999
101
101
100.998
100.993
100.987
100.978
100.968
100.957
100.945
100.934
100.923
100.913
100.905
100.898
100.892
100.888
100.886
100.885
100.886
100.889
100.892
100.897
100.903
100.908
100.912
100.916
100.917
100.916
100.913
100.908
100.901
100.892
100.882
100.871
100.86
100.849
100.838
100.828
100.818
100.809
100.801
100.794
100.788
100.784
100.782
100.781
100.782
100.784
100.786
100.787
100.788
100.787
100.784
100.779
100.771
100.761
100.749
100.736
100.723
100.71
100.698
100.688
100.681
100.676
100.674
100.676
100.681
100.689
100.7
100.712
100.725
100.738
100.749
100.76
100.769
100.777
100.784
100.788
100.789
100.786
100.78
100.772
100.762
100.752
100.741
100.731
100.721
100.711
100.703
100.696
100.691
100.689
100.688
100.688
100.691
100.694
100.698
100.702
100.706
100.709
100.711
100.712
100.712
100.71
100.708
100.705
100.701
100.696
100.691
100.685
100.68
100.676
100.672
100.67
100.668
100.667
100.667
100.668
100.669
100.671
100.673
100.674
100.676
100.677
100.678
100.679
100.68
100.681
100.681
100.68
100.68
100.679
100.678
100.676
100.675
100.674
100.674
100.674
101.479
101.471
101.459
101.444
101.426
101.407
101.387
101.369
101.354
101.343
101.336
101.336
101.34
101.351
101.365
101.382
101.401
101.418
101.434
101.445
101.451
101.452
101.448
101.438
101.425
101.409
101.391
101.372
101.353
101.335
101.319
101.304
101.292
101.284
101.278
101.277
101.279
101.285
101.294
101.306
101.32
101.335
101.349
101.361
101.369
101.373
101.371
101.365
101.353
101.338
101.319
101.298
101.276
101.253
101.231
101.211
101.192
101.176
101.163
101.153
101.147
101.143
101.144
101.147
101.153
101.16
101.168
101.176
101.182
101.185
101.186
101.184
101.178
101.17
101.159
101.147
101.135
101.123
101.111
101.1
101.091
101.084
101.078
101.075
101.073
101.074
101.077
101.082
101.089
101.097
101.107
101.117
101.127
101.136
101.144
101.15
101.153
101.154
101.152
101.148
101.141
101.132
101.121
101.108
101.095
101.082
101.068
101.054
101.042
101.03
101.02
101.012
101.006
101.002
101
101
101
101
101
100.999
100.996
100.991
100.984
100.975
100.965
100.954
100.943
100.932
100.922
100.913
100.905
100.899
100.894
100.891
100.889
100.889
100.89
100.893
100.896
100.901
100.905
100.909
100.913
100.915
100.915
100.914
100.91
100.905
100.898
100.889
100.879
100.869
100.858
100.847
100.837
100.827
100.818
100.81
100.802
100.796
100.792
100.788
100.786
100.785
100.785
100.786
100.787
100.787
100.787
100.785
100.782
100.776
100.768
100.758
100.746
100.734
100.721
100.709
100.698
100.689
100.682
100.678
100.677
100.68
100.685
100.694
100.704
100.716
100.728
100.739
100.75
100.759
100.768
100.775
100.78
100.784
100.784
100.782
100.776
100.768
100.759
100.749
100.739
100.729
100.72
100.712
100.704
100.699
100.695
100.693
100.692
100.693
100.695
100.698
100.702
100.705
100.707
100.709
100.71
100.71
100.71
100.708
100.706
100.703
100.699
100.694
100.689
100.684
100.679
100.675
100.671
100.669
100.667
100.667
100.667
100.668
100.67
100.671
100.673
100.674
100.676
100.678
100.679
100.68
100.681
100.681
100.681
100.681
100.68
100.679
100.678
100.677
100.676
100.675
100.674
100.674
101.46
101.453
101.444
101.431
101.417
101.401
101.386
101.372
101.361
101.354
101.35
101.351
101.356
101.365
101.377
101.391
101.406
101.42
101.431
101.439
101.443
101.442
101.437
101.427
101.414
101.399
101.383
101.366
101.349
101.333
101.319
101.307
101.298
101.291
101.287
101.287
101.29
101.296
101.304
101.315
101.326
101.338
101.349
101.358
101.363
101.365
101.362
101.355
101.344
101.329
101.311
101.292
101.271
101.25
101.23
101.211
101.195
101.18
101.169
101.16
101.154
101.151
101.151
101.154
101.158
101.163
101.169
101.175
101.179
101.181
101.18
101.177
101.172
101.164
101.154
101.143
101.131
101.12
101.109
101.1
101.092
101.086
101.081
101.079
101.079
101.08
101.084
101.089
101.096
101.103
101.112
101.12
101.128
101.136
101.142
101.146
101.148
101.147
101.144
101.139
101.132
101.123
101.113
101.101
101.089
101.077
101.065
101.054
101.043
101.034
101.026
101.019
101.013
101.01
101.007
101.005
101.004
101.003
101.001
100.998
100.993
100.987
100.98
100.971
100.961
100.95
100.94
100.93
100.921
100.913
100.906
100.901
100.897
100.895
100.894
100.895
100.896
100.899
100.902
100.905
100.908
100.911
100.913
100.914
100.913
100.911
100.907
100.901
100.893
100.885
100.875
100.865
100.855
100.845
100.835
100.827
100.818
100.811
100.805
100.8
100.796
100.793
100.791
100.789
100.789
100.788
100.788
100.787
100.786
100.783
100.778
100.772
100.763
100.754
100.743
100.731
100.72
100.709
100.699
100.691
100.685
100.682
100.682
100.685
100.691
100.699
100.71
100.721
100.732
100.742
100.751
100.759
100.765
100.771
100.775
100.778
100.778
100.775
100.77
100.762
100.753
100.745
100.736
100.727
100.719
100.712
100.706
100.702
100.699
100.698
100.698
100.7
100.702
100.704
100.706
100.708
100.709
100.71
100.709
100.709
100.708
100.706
100.704
100.701
100.697
100.692
100.687
100.682
100.678
100.673
100.67
100.668
100.667
100.666
100.667
100.668
100.67
100.671
100.673
100.675
100.677
100.678
100.68
100.681
100.682
100.682
100.682
100.682
100.681
100.68
100.679
100.677
100.676
100.675
100.675
100.674
101.438
101.433
101.426
101.417
101.406
101.395
101.385
101.376
101.37
101.366
101.366
101.368
101.374
101.381
101.391
101.401
101.411
101.421
101.428
101.432
101.433
101.43
101.424
101.414
101.402
101.388
101.374
101.359
101.345
101.331
101.32
101.311
101.304
101.3
101.299
101.3
101.303
101.309
101.316
101.324
101.333
101.341
101.349
101.354
101.356
101.355
101.351
101.343
101.332
101.318
101.302
101.284
101.266
101.247
101.229
101.212
101.198
101.185
101.175
101.168
101.163
101.16
101.16
101.161
101.164
101.167
101.17
101.173
101.175
101.175
101.174
101.17
101.164
101.157
101.148
101.138
101.127
101.117
101.108
101.1
101.093
101.089
101.086
101.085
101.086
101.089
101.093
101.098
101.104
101.111
101.118
101.124
101.13
101.135
101.139
101.141
101.14
101.138
101.134
101.129
101.121
101.113
101.103
101.093
101.083
101.073
101.063
101.054
101.046
101.038
101.032
101.027
101.022
101.018
101.015
101.011
101.008
101.005
101.001
100.996
100.99
100.983
100.975
100.966
100.956
100.946
100.936
100.927
100.919
100.913
100.907
100.904
100.901
100.9
100.9
100.901
100.903
100.905
100.908
100.91
100.912
100.913
100.913
100.912
100.91
100.907
100.902
100.896
100.888
100.88
100.871
100.861
100.852
100.842
100.834
100.826
100.819
100.813
100.808
100.804
100.801
100.798
100.796
100.795
100.793
100.791
100.789
100.787
100.784
100.779
100.774
100.767
100.758
100.749
100.739
100.728
100.718
100.708
100.7
100.693
100.688
100.686
100.687
100.691
100.697
100.706
100.716
100.726
100.736
100.745
100.752
100.757
100.762
100.766
100.769
100.771
100.77
100.767
100.762
100.755
100.747
100.74
100.732
100.725
100.719
100.713
100.709
100.706
100.705
100.705
100.706
100.707
100.709
100.71
100.711
100.711
100.711
100.71
100.709
100.707
100.705
100.703
100.701
100.698
100.694
100.69
100.685
100.68
100.676
100.672
100.669
100.667
100.666
100.666
100.667
100.668
100.67
100.672
100.674
100.676
100.678
100.679
100.681
100.682
100.683
100.683
100.683
100.682
100.682
100.68
100.679
100.678
100.677
100.676
100.675
100.675
101.414
101.411
101.407
101.401
101.395
101.39
101.385
101.382
101.38
101.381
101.383
101.387
101.392
101.398
101.405
101.411
101.417
101.421
101.424
101.424
101.421
101.417
101.409
101.4
101.389
101.376
101.364
101.352
101.34
101.33
101.322
101.316
101.312
101.311
101.311
101.314
101.318
101.323
101.328
101.334
101.34
101.344
101.348
101.349
101.348
101.345
101.339
101.33
101.319
101.307
101.292
101.276
101.26
101.243
101.228
101.213
101.201
101.191
101.182
101.176
101.172
101.17
101.169
101.169
101.169
101.17
101.171
101.172
101.171
101.17
101.167
101.162
101.156
101.149
101.141
101.132
101.123
101.114
101.106
101.1
101.095
101.092
101.091
101.092
101.094
101.098
101.103
101.108
101.114
101.119
101.124
101.129
101.132
101.135
101.135
101.135
101.132
101.129
101.123
101.117
101.109
101.101
101.092
101.084
101.075
101.068
101.06
101.054
101.048
101.043
101.039
101.035
101.031
101.027
101.023
101.018
101.013
101.008
101.002
100.995
100.987
100.979
100.97
100.96
100.951
100.942
100.933
100.925
100.918
100.913
100.909
100.907
100.906
100.906
100.907
100.909
100.911
100.913
100.914
100.915
100.916
100.915
100.914
100.911
100.908
100.903
100.897
100.89
100.882
100.874
100.865
100.856
100.848
100.84
100.832
100.826
100.82
100.816
100.812
100.809
100.807
100.804
100.802
100.8
100.797
100.794
100.791
100.787
100.782
100.776
100.769
100.762
100.753
100.744
100.735
100.725
100.716
100.708
100.701
100.695
100.692
100.692
100.694
100.698
100.705
100.713
100.723
100.732
100.74
100.747
100.752
100.756
100.759
100.761
100.762
100.763
100.762
100.759
100.753
100.747
100.741
100.734
100.728
100.723
100.718
100.715
100.712
100.711
100.711
100.712
100.714
100.715
100.716
100.717
100.717
100.715
100.713
100.71
100.708
100.705
100.703
100.701
100.698
100.695
100.691
100.687
100.682
100.678
100.674
100.67
100.667
100.666
100.665
100.665
100.667
100.668
100.67
100.672
100.674
100.677
100.678
100.68
100.682
100.683
100.684
100.684
100.684
100.683
100.682
100.681
100.68
100.679
100.677
100.677
100.676
100.676
101.39
101.389
101.387
101.386
101.385
101.385
101.386
101.388
101.391
101.396
101.4
101.406
101.411
101.415
101.418
101.421
101.422
101.421
101.419
101.415
101.41
101.403
101.394
101.385
101.374
101.364
101.354
101.344
101.336
101.329
101.324
101.322
101.321
101.322
101.324
101.328
101.332
101.336
101.34
101.344
101.346
101.347
101.346
101.344
101.34
101.334
101.326
101.317
101.306
101.294
101.281
101.267
101.253
101.239
101.226
101.215
101.205
101.196
101.19
101.185
101.181
101.179
101.177
101.176
101.175
101.174
101.172
101.17
101.167
101.164
101.16
101.154
101.148
101.141
101.134
101.126
101.118
101.111
101.105
101.101
101.098
101.097
101.098
101.1
101.103
101.108
101.113
101.118
101.123
101.128
101.131
101.133
101.134
101.134
101.132
101.128
101.124
101.118
101.111
101.104
101.097
101.089
101.081
101.074
101.068
101.063
101.058
101.055
101.052
101.049
101.046
101.043
101.04
101.036
101.031
101.025
101.018
101.011
101.002
100.994
100.984
100.975
100.965
100.955
100.946
100.937
100.929
100.923
100.917
100.914
100.911
100.911
100.911
100.912
100.914
100.917
100.919
100.92
100.921
100.921
100.92
100.917
100.914
100.91
100.905
100.899
100.892
100.884
100.877
100.868
100.86
100.852
100.844
100.837
100.831
100.826
100.822
100.819
100.816
100.814
100.812
100.81
100.808
100.805
100.801
100.797
100.792
100.786
100.78
100.772
100.765
100.757
100.748
100.739
100.731
100.722
100.715
100.708
100.703
100.699
100.697
100.698
100.701
100.706
100.713
100.721
100.729
100.738
100.744
100.749
100.752
100.754
100.755
100.755
100.755
100.754
100.753
100.749
100.745
100.739
100.734
100.729
100.724
100.721
100.718
100.717
100.716
100.716
100.718
100.72
100.722
100.723
100.724
100.724
100.722
100.719
100.715
100.711
100.707
100.704
100.701
100.698
100.695
100.692
100.689
100.684
100.68
100.675
100.671
100.668
100.666
100.664
100.664
100.665
100.666
100.668
100.671
100.673
100.675
100.677
100.68
100.681
100.683
100.684
100.685
100.685
100.685
100.684
100.683
100.682
100.681
100.679
100.678
100.677
100.677
100.676
101.366
101.367
101.369
101.372
101.376
101.382
101.388
101.395
101.403
101.41
101.417
101.423
101.427
101.43
101.43
101.429
101.425
101.42
101.414
101.406
101.398
101.389
101.379
101.37
101.361
101.352
101.344
101.338
101.333
101.329
101.328
101.328
101.331
101.334
101.338
101.342
101.346
101.349
101.352
101.352
101.351
101.349
101.344
101.339
101.331
101.323
101.314
101.304
101.294
101.282
101.271
101.259
101.247
101.235
101.225
101.216
101.208
101.202
101.197
101.193
101.19
101.188
101.185
101.182
101.18
101.176
101.173
101.168
101.164
101.159
101.153
101.147
101.14
101.134
101.127
101.12
101.114
101.109
101.105
101.102
101.101
101.102
101.105
101.109
101.113
101.119
101.124
101.129
101.133
101.136
101.138
101.137
101.136
101.132
101.128
101.122
101.115
101.107
101.099
101.091
101.084
101.077
101.07
101.065
101.061
101.058
101.056
101.055
101.055
101.054
101.053
101.051
101.048
101.044
101.038
101.031
101.023
101.013
101.003
100.992
100.982
100.971
100.96
100.95
100.941
100.933
100.926
100.921
100.917
100.915
100.914
100.915
100.917
100.919
100.922
100.924
100.926
100.927
100.927
100.926
100.923
100.92
100.915
100.909
100.902
100.895
100.887
100.879
100.871
100.862
100.855
100.847
100.841
100.835
100.83
100.827
100.824
100.822
100.821
100.819
100.818
100.816
100.813
100.809
100.805
100.799
100.793
100.785
100.778
100.769
100.761
100.752
100.743
100.735
100.727
100.72
100.714
100.709
100.705
100.703
100.702
100.704
100.708
100.713
100.72
100.728
100.736
100.743
100.748
100.751
100.752
100.752
100.75
100.749
100.748
100.746
100.743
100.74
100.736
100.731
100.727
100.723
100.721
100.72
100.719
100.719
100.72
100.722
100.725
100.728
100.73
100.731
100.731
100.73
100.727
100.722
100.717
100.712
100.707
100.702
100.699
100.696
100.693
100.69
100.686
100.682
100.677
100.673
100.669
100.666
100.664
100.663
100.663
100.665
100.666
100.669
100.671
100.674
100.676
100.679
100.681
100.683
100.684
100.686
100.686
100.687
100.686
100.686
100.684
100.683
100.682
100.68
100.679
100.678
100.677
100.677
101.346
101.349
101.354
101.361
101.37
101.38
101.391
101.403
101.414
101.424
101.432
101.438
101.441
101.442
101.439
101.434
101.427
101.418
101.408
101.397
101.386
101.375
101.365
101.356
101.347
101.341
101.335
101.332
101.33
101.33
101.332
101.336
101.341
101.346
101.351
101.355
101.359
101.361
101.361
101.359
101.355
101.35
101.342
101.333
101.323
101.313
101.303
101.292
101.281
101.271
101.26
101.25
101.241
101.232
101.224
101.217
101.212
101.208
101.204
101.201
101.198
101.195
101.191
101.188
101.183
101.178
101.173
101.167
101.161
101.154
101.147
101.14
101.134
101.127
101.121
101.116
101.111
101.107
101.105
101.105
101.106
101.109
101.113
101.118
101.124
101.129
101.135
101.139
101.143
101.144
101.144
101.141
101.137
101.131
101.123
101.115
101.106
101.096
101.087
101.079
101.071
101.065
101.06
101.057
101.055
101.055
101.055
101.056
101.058
101.059
101.059
101.058
101.056
101.051
101.045
101.037
101.027
101.016
101.004
100.992
100.98
100.968
100.957
100.946
100.938
100.93
100.924
100.92
100.918
100.917
100.918
100.919
100.922
100.926
100.929
100.931
100.933
100.934
100.933
100.931
100.927
100.922
100.916
100.908
100.9
100.891
100.883
100.874
100.865
100.857
100.85
100.844
100.838
100.834
100.83
100.828
100.826
100.825
100.825
100.824
100.822
100.82
100.817
100.813
100.808
100.801
100.793
100.785
100.776
100.766
100.757
100.748
100.74
100.732
100.725
100.719
100.714
100.71
100.708
100.707
100.708
100.711
100.715
100.721
100.727
100.734
100.741
100.747
100.75
100.752
100.751
100.749
100.746
100.743
100.74
100.737
100.735
100.731
100.727
100.724
100.721
100.719
100.718
100.719
100.72
100.722
100.725
100.728
100.732
100.735
100.737
100.738
100.738
100.735
100.731
100.725
100.719
100.712
100.707
100.702
100.698
100.694
100.691
100.688
100.684
100.68
100.675
100.671
100.667
100.664
100.663
100.662
100.663
100.664
100.666
100.669
100.672
100.675
100.677
100.68
100.682
100.684
100.686
100.687
100.688
100.688
100.687
100.687
100.685
100.684
100.682
100.681
100.679
100.678
100.678
100.677
101.33
101.335
101.343
101.354
101.366
101.381
101.396
101.41
101.424
101.435
101.444
101.45
101.452
101.451
101.446
101.438
101.427
101.415
101.402
101.388
101.375
101.363
101.352
101.343
101.336
101.331
101.328
101.328
101.329
101.333
101.338
101.344
101.35
101.357
101.362
101.367
101.369
101.37
101.368
101.364
101.358
101.349
101.339
101.328
101.316
101.304
101.292
101.281
101.271
101.261
101.251
101.243
101.235
101.228
101.223
101.219
101.215
101.212
101.209
101.207
101.204
101.2
101.196
101.192
101.186
101.18
101.173
101.166
101.158
101.15
101.142
101.135
101.128
101.122
101.116
101.112
101.109
101.107
101.107
101.108
101.111
101.116
101.121
101.127
101.134
101.14
101.145
101.149
101.151
101.151
101.149
101.144
101.137
101.129
101.119
101.108
101.097
101.086
101.076
101.068
101.06
101.055
101.051
101.05
101.05
101.052
101.054
101.057
101.061
101.063
101.064
101.064
101.062
101.057
101.05
101.041
101.03
101.018
101.005
100.991
100.978
100.965
100.954
100.944
100.935
100.928
100.923
100.92
100.919
100.919
100.921
100.924
100.928
100.932
100.935
100.938
100.94
100.94
100.938
100.935
100.93
100.924
100.916
100.907
100.898
100.888
100.879
100.869
100.861
100.853
100.846
100.841
100.836
100.833
100.831
100.83
100.829
100.829
100.828
100.828
100.826
100.824
100.82
100.816
100.809
100.802
100.793
100.784
100.774
100.764
100.754
100.745
100.737
100.73
100.723
100.718
100.715
100.713
100.712
100.712
100.714
100.717
100.722
100.727
100.733
100.74
100.746
100.75
100.752
100.752
100.749
100.746
100.741
100.737
100.733
100.73
100.726
100.723
100.72
100.717
100.716
100.715
100.717
100.719
100.722
100.725
100.729
100.734
100.738
100.741
100.743
100.744
100.743
100.739
100.734
100.728
100.72
100.713
100.707
100.701
100.697
100.694
100.69
100.687
100.683
100.678
100.673
100.669
100.665
100.663
100.661
100.661
100.662
100.664
100.667
100.669
100.672
100.675
100.678
100.681
100.683
100.686
100.687
100.688
100.689
100.689
100.689
100.688
100.686
100.685
100.683
100.681
100.68
100.679
100.678
100.678
101.32
101.326
101.336
101.35
101.366
101.383
101.4
101.417
101.432
101.444
101.453
101.458
101.459
101.456
101.449
101.438
101.425
101.411
101.395
101.379
101.365
101.352
101.341
101.332
101.326
101.323
101.323
101.325
101.33
101.336
101.344
101.352
101.36
101.367
101.372
101.376
101.377
101.376
101.373
101.367
101.358
101.348
101.336
101.323
101.309
101.296
101.283
101.272
101.261
101.251
101.243
101.236
101.23
101.226
101.222
101.22
101.218
101.216
101.213
101.211
101.208
101.204
101.2
101.194
101.188
101.181
101.173
101.164
101.156
101.147
101.139
101.131
101.124
101.118
101.113
101.11
101.108
101.108
101.11
101.113
101.117
101.123
101.13
101.137
101.144
101.15
101.155
101.158
101.159
101.157
101.153
101.146
101.137
101.126
101.114
101.102
101.089
101.077
101.067
101.058
101.051
101.046
101.044
101.044
101.046
101.049
101.054
101.058
101.063
101.066
101.068
101.068
101.066
101.062
101.054
101.045
101.033
101.02
101.006
100.992
100.977
100.964
100.952
100.942
100.934
100.928
100.923
100.921
100.921
100.923
100.925
100.929
100.933
100.937
100.941
100.944
100.945
100.945
100.943
100.939
100.933
100.926
100.917
100.907
100.897
100.886
100.876
100.866
100.857
100.85
100.844
100.839
100.835
100.833
100.832
100.831
100.831
100.832
100.831
100.831
100.829
100.826
100.822
100.817
100.81
100.802
100.793
100.783
100.773
100.763
100.753
100.744
100.735
100.729
100.723
100.719
100.717
100.716
100.716
100.717
100.72
100.723
100.728
100.733
100.738
100.744
100.749
100.752
100.753
100.751
100.747
100.742
100.736
100.731
100.726
100.723
100.719
100.716
100.714
100.712
100.712
100.713
100.716
100.72
100.724
100.729
100.734
100.739
100.743
100.746
100.748
100.748
100.747
100.743
100.737
100.729
100.722
100.714
100.707
100.701
100.697
100.693
100.69
100.686
100.682
100.677
100.672
100.667
100.664
100.661
100.66
100.66
100.662
100.664
100.667
100.67
100.673
100.676
100.679
100.682
100.685
100.687
100.689
100.69
100.691
100.69
100.69
100.689
100.687
100.685
100.684
100.682
100.68
100.679
100.678
100.678
101.317
101.324
101.336
101.351
101.368
101.387
101.406
101.423
101.438
101.45
101.458
101.462
101.461
101.457
101.448
101.436
101.421
101.405
101.388
101.371
101.356
101.342
101.331
101.324
101.319
101.318
101.32
101.325
101.332
101.341
101.35
101.359
101.368
101.375
101.38
101.383
101.383
101.38
101.375
101.367
101.357
101.345
101.332
101.317
101.303
101.289
101.276
101.264
101.253
101.244
101.237
101.231
101.227
101.224
101.222
101.221
101.219
101.218
101.216
101.213
101.21
101.206
101.201
101.195
101.188
101.181
101.172
101.163
101.154
101.145
101.136
101.128
101.121
101.116
101.112
101.109
101.109
101.111
101.114
101.119
101.125
101.131
101.139
101.146
101.153
101.159
101.163
101.165
101.165
101.161
101.155
101.147
101.136
101.123
101.11
101.096
101.082
101.069
101.058
101.049
101.043
101.039
101.038
101.04
101.043
101.048
101.053
101.059
101.064
101.068
101.071
101.071
101.069
101.064
101.057
101.047
101.035
101.022
101.007
100.992
100.978
100.964
100.952
100.942
100.934
100.928
100.925
100.924
100.924
100.926
100.929
100.933
100.938
100.942
100.945
100.948
100.949
100.949
100.946
100.942
100.935
100.927
100.918
100.907
100.896
100.884
100.874
100.864
100.855
100.848
100.842
100.838
100.836
100.834
100.834
100.834
100.834
100.834
100.834
100.833
100.831
100.828
100.823
100.817
100.81
100.802
100.792
100.782
100.772
100.762
100.752
100.743
100.736
100.729
100.725
100.722
100.72
100.72
100.721
100.723
100.725
100.729
100.733
100.737
100.742
100.747
100.75
100.752
100.752
100.749
100.744
100.738
100.732
100.726
100.721
100.717
100.714
100.711
100.709
100.709
100.71
100.712
100.716
100.721
100.727
100.732
100.738
100.743
100.747
100.75
100.752
100.751
100.749
100.745
100.738
100.731
100.722
100.715
100.708
100.702
100.698
100.694
100.69
100.687
100.682
100.677
100.672
100.667
100.663
100.661
100.66
100.66
100.662
100.664
100.667
100.671
100.674
100.677
100.681
100.684
100.686
100.688
100.69
100.691
100.692
100.692
100.691
100.69
100.688
100.686
100.684
100.682
100.681
100.679
100.678
100.678
101.321
101.329
101.34
101.356
101.374
101.392
101.411
101.427
101.441
101.452
101.459
101.461
101.46
101.454
101.444
101.431
101.415
101.398
101.38
101.363
101.348
101.335
101.324
101.318
101.315
101.316
101.321
101.327
101.336
101.346
101.357
101.366
101.375
101.381
101.385
101.387
101.385
101.381
101.375
101.366
101.354
101.341
101.327
101.312
101.297
101.283
101.269
101.257
101.247
101.238
101.232
101.227
101.224
101.222
101.222
101.221
101.22
101.219
101.217
101.214
101.211
101.206
101.201
101.195
101.188
101.18
101.172
101.162
101.153
101.144
101.135
101.127
101.121
101.116
101.113
101.111
101.112
101.115
101.119
101.125
101.132
101.14
101.147
101.155
101.161
101.167
101.17
101.171
101.169
101.164
101.157
101.147
101.134
101.12
101.105
101.09
101.076
101.063
101.052
101.043
101.038
101.035
101.035
101.037
101.041
101.047
101.053
101.059
101.065
101.069
101.072
101.073
101.071
101.066
101.058
101.049
101.037
101.023
101.008
100.993
100.979
100.965
100.953
100.943
100.936
100.931
100.928
100.927
100.928
100.93
100.933
100.937
100.942
100.946
100.949
100.951
100.952
100.952
100.949
100.944
100.937
100.928
100.918
100.907
100.895
100.884
100.873
100.863
100.855
100.848
100.843
100.839
100.837
100.836
100.836
100.836
100.836
100.836
100.835
100.834
100.831
100.828
100.823
100.817
100.81
100.801
100.792
100.782
100.772
100.762
100.752
100.744
100.737
100.732
100.728
100.725
100.724
100.725
100.726
100.728
100.73
100.733
100.736
100.74
100.744
100.748
100.75
100.751
100.75
100.746
100.741
100.734
100.727
100.721
100.716
100.712
100.709
100.707
100.707
100.707
100.709
100.713
100.718
100.724
100.73
100.736
100.741
100.746
100.75
100.753
100.754
100.753
100.75
100.745
100.739
100.731
100.723
100.715
100.708
100.703
100.699
100.695
100.692
100.688
100.683
100.678
100.672
100.667
100.663
100.66
100.659
100.66
100.661
100.664
100.668
100.671
100.675
100.678
100.682
100.685
100.687
100.69
100.692
100.693
100.693
100.693
100.692
100.691
100.689
100.687
100.685
100.682
100.681
100.679
100.679
100.678
101.332
101.339
101.351
101.365
101.381
101.398
101.415
101.43
101.442
101.451
101.456
101.457
101.454
101.447
101.436
101.423
101.407
101.39
101.373
101.356
101.341
101.329
101.32
101.315
101.314
101.317
101.323
101.332
101.342
101.352
101.363
101.372
101.38
101.385
101.388
101.388
101.385
101.38
101.372
101.362
101.35
101.337
101.322
101.307
101.292
101.277
101.264
101.252
101.242
101.234
101.228
101.225
101.223
101.222
101.221
101.221
101.22
101.219
101.216
101.213
101.21
101.205
101.2
101.193
101.186
101.179
101.17
101.162
101.153
101.144
101.135
101.128
101.122
101.118
101.116
101.116
101.117
101.121
101.127
101.133
101.14
101.148
101.155
101.162
101.168
101.173
101.175
101.175