# vtk DataFile Version 2.0
HPC Tutorials: Michael Bader, Kaveh Rahnema, Oliver Meister
ASCII
DATASET RECTILINEAR_GRID
DIMENSIONS 257 257 1
X_COORDINATES 257 float
0
0.005
0.01
0.015
0.02
0.025
0.03
0.035
0.04
0.045
0.05
0.055
0.06
0.065
0.07
0.075
0.08
0.085
0.09
0.095
0.1
0.105
0.11
0.115
0.12
0.125
0.13
0.135
0.14
0.145
0.15
0.155
0.16
0.165
0.17
0.175
0.18
0.185
0.19
0.195
0.2
0.205
0.21
0.215
0.22
0.225
0.23
0.235
0.24
0.245
0.25
0.255
0.26
0.265
0.27
0.275
0.28
0.285
0.29
0.295
0.3
0.305
0.31
0.315
0.32
0.325
0.33
0.335
0.34
0.345
0.35
0.355
0.36
0.365
0.37
0.375
0.38
0.385
0.39
0.395
0.4
0.405
0.41
0.415
0.42
0.425
0.43
0.435
0.44
0.445
0.45
0.455
0.46
0.465
0.47
0.475
0.48
0.485
0.49
0.495
0.5
0.505
0.51
0.515
0.52
0.525
0.53
0.535
0.54
0.545
0.55
0.555
0.56
0.565
0.57
0.575
0.58
0.585
0.59
0.595
0.6
0.605
0.61
0.615
0.62
0.625
0.63
0.635
0.64
0.645
0.65
0.655
0.66
0.665
0.67
0.675
0.68
0.685
0.69
0.695
0.7
0.705
0.71
0.715
0.72
0.725
0.73
0.735
0.74
0.745
0.75
0.755
0.76
0.765
0.77
0.775
0.78
0.785
0.79
0.795
0.8
0.805
0.81
0.815
0.82
0.825
0.83
0.835
0.84
0.845
0.85
0.855
0.86
0.865
0.87
0.875
0.88
0.885
0.89
0.895
0.9
0.905
0.91
0.915
0.92
0.925
0.93
0.935
0.94
0.945
0.95
0.955
0.96
0.965
0.97
0.975
0.98
0.985
0.99
0.995
1
1.005
1.01
1.015
1.02
1.025
1.03
1.035
1.04
1.045
1.05
1.055
1.06
1.065
1.07
1.075
1.08
1.085
1.09
1.095
1.1
1.105
1.11
1.115
1.12
1.125
1.13
1.135
1.14
1.145
1.15
1.155
1.16
1.165
1.17
1.175
1.18
1.185
1.19
1.195
1.2
1.205
1.21
1.215
1.22
1.225
1.23
1.235
1.24
1.245
1.25
1.255
1.26
1.265
1.27
1.275
1.28
Y_COORDINATES 257 float
0
0.005
0.01
0.015
0.02
0.025
0.03
0.035
0.04
0.045
0.05
0.055
0.06
0.065
0.07
0.075
0.08
0.085
0.09
0.095
0.1
0.105
0.11
0.115
0.12
0.125
0.13
0.135
0.14
0.145
0.15
0.155
0.16
0.165
0.17
0.175
0.18
0.185
0.19
0.195
0.2
0.205
0.21
0.215
0.22
0.225
0.23
0.235
0.24
0.245
0.25
0.255
0.26
0.265
0.27
0.275
0.28
0.285
0.29
0.295
0.3
0.305
0.31
0.315
0.32
0.325
0.33
0.335
0.34
0.345
0.35
0.355
0.36
0.365
0.37
0.375
0.38
0.385
0.39
0.395
0.4
0.405
0.41
0.415
0.42
0.425
0.43
0.435
0.44
0.445
0.45
0.455
0.46
0.465
0.47
0.475
0.48
0.485
0.49
0.495
0.5
0.505
0.51
0.515
0.52
0.525
0.53
0.535
0.54
0.545
0.55
0.555
0.56
0.565
0.57
0.575
0.58
0.585
0.59
0.595
0.6
0.605
0.61
0.615
0.62
0.625
0.63
0.635
0.64
0.645
0.65
0.655
0.66
0.665
0.67
0.675
0.68
0.685
0.69
0.695
0.7
0.705
0.71
0.715
0.72
0.725
0.73
0.735
0.74
0.745
0.75
0.755
0.76
0.765
0.77
0.775
0.78
0.785
0.79
0.795
0.8
0.805
0.81
0.815
0.82
0.825
0.83
0.835
0.84
0.845
0.85
0.855
0.86
0.865
0.87
0.875
0.88
0.885
0.89
0.895
0.9
0.905
0.91
0.915
0.92
0.925
0.93
0.935
0.94
0.945
0.95
0.955
0.96
0.965
0.97
0.975
0.98
0.985
0.99
0.995
1
1.005
1.01
1.015
1.02
1.025
1.03
1.035
1.04
1.045
1.05
1.055
1.06
1.065
1.07
1.075
1.08
1.085
1.09
1.095
1.1
1.105
1.11
1.115
1.12
1.125
1.13
1.135
1.14
1.145
1.15
1.155
1.16
1.165
1.17
1.175
1.18
1.185
1.19
1.195
1.2
1.205
1.21
1.215
1.22
1.225
1.23
1.235
1.24
1.245
1.25
1.255
1.26
1.265
1.27
1.275
1.28
Z_COORDINATES 1 float
0
CELL_DATA 65536
SCALARS H float 1
LOOKUP_TABLE default
101.087
101.088
101.089
101.091
101.094
101.098
101.102
101.107
101.112
101.118
101.125
101.131
101.138
101.145
101.151
101.157
101.163
101.167
101.171
101.173
101.173
101.172
101.169
101.164
101.157
101.149
101.138
101.126
101.113
101.098
101.081
101.064
101.047
101.029
101.01
100.992
100.974
100.956
100.939
100.922
100.907
100.893
100.879
100.867
100.857
100.847
100.839
100.832
100.826
100.822
100.819
100.817
100.815
100.815
100.816
100.817
100.82
100.822
100.825
100.829
100.832
100.836
100.839
100.843
100.847
100.85
100.853
100.856
100.859
100.861
100.863
100.865
100.866
100.867
100.868
100.869
100.869
100.869
100.869
100.869
100.869
100.868
100.867
100.867
100.866
100.865
100.864
100.863
100.861
100.86
100.858
100.856
100.854
100.852
100.85
100.847
100.844
100.841
100.838
100.835
100.832
100.829
100.825
100.822
100.819
100.816
100.814
100.811
100.809
100.807
100.806
100.804
100.803
100.802
100.802
100.801
100.801
100.8
100.8
100.8
100.8
100.8
100.8
100.8
100.799
100.799
100.798
100.798
100.797
100.796
100.796
100.794
100.793
100.792
100.791
100.79
100.788
100.787
100.785
100.784
100.782
100.781
100.78
100.779
100.778
100.777
100.776
100.776
100.776
100.777
100.778
100.78
100.782
100.785
100.788
100.793
100.797
100.803
100.81
100.817
100.826
100.835
100.846
100.858
100.87
100.884
100.899
100.916
100.933
100.952
100.972
100.992
101.014
101.036
101.059
101.083
101.106
101.13
101.153
101.175
101.196
101.216
101.234
101.25
101.263
101.274
101.281
101.285
101.285
101.282
101.274
101.262
101.246
101.226
101.202
101.174
101.142
101.107
101.068
101.026
100.981
100.933
100.884
100.833
100.78
100.726
100.671
100.617
100.561
100.507
100.452
100.399
100.346
100.295
100.245
100.196
100.149
100.104
100.061
100.019
99.9796
99.9417
99.9055
99.871
99.8382
99.807
99.7773
99.7491
99.7221
99.6965
99.672
99.6486
99.6263
99.6049
99.5845
99.5649
99.5462
99.5283
99.5112
99.4949
99.4794
99.4648
99.4509
99.4379
99.4258
99.4146
99.4043
99.395
99.3867
99.3794
99.3732
99.368
99.364
99.361
99.3591
99.3584
101.087
101.088
101.09
101.092
101.095
101.098
101.103
101.107
101.113
101.119
101.125
101.131
101.138
101.145
101.151
101.157
101.162
101.167
101.17
101.172
101.172
101.171
101.168
101.163
101.157
101.148
101.138
101.126
101.112
101.097
101.081
101.064
101.047
101.029
101.01
100.992
100.974
100.956
100.939
100.923
100.908
100.893
100.88
100.868
100.857
100.847
100.839
100.832
100.826
100.822
100.818
100.816
100.815
100.815
100.816
100.817
100.819
100.822
100.825
100.828
100.831
100.835
100.839
100.842
100.846
100.849
100.853
100.856
100.858
100.861
100.863
100.865
100.866
100.867
100.868
100.869
100.869
100.87
100.87
100.87
100.869
100.869
100.868
100.868
100.867
100.866
100.865
100.864
100.863
100.861
100.86
100.858
100.856
100.854
100.851
100.849
100.846
100.843
100.84
100.837
100.834
100.831
100.828
100.825
100.822
100.819
100.816
100.814
100.812
100.81
100.808
100.807
100.805
100.804
100.803
100.803
100.802
100.802
100.801
100.801
100.801
100.801
100.8
100.8
100.8
100.799
100.799
100.798
100.797
100.797
100.796
100.795
100.794
100.793
100.791
100.79
100.789
100.787
100.786
100.784
100.783
100.782
100.78
100.779
100.778
100.778
100.777
100.777
100.778
100.779
100.78
100.782
100.784
100.787
100.791
100.795
100.8
100.806
100.813
100.821
100.83
100.84
100.851
100.863
100.876
100.891
100.906
100.923
100.941
100.96
100.98
101.001
101.023
101.045
101.068
101.091
101.114
101.137
101.159
101.181
101.201
101.219
101.236
101.25
101.262
101.271
101.277
101.279
101.277
101.272
101.263
101.249
101.232
101.211
101.185
101.156
101.124
101.088
101.048
101.006
100.961
100.914
100.865
100.815
100.763
100.71
100.657
100.603
100.55
100.496
100.444
100.392
100.341
100.292
100.243
100.197
100.152
100.109
100.067
100.028
99.9901
99.9541
99.9199
99.8874
99.8566
99.8274
99.7996
99.7732
99.7482
99.7244
99.7018
99.6802
99.6596
99.64
99.6212
99.6033
99.5862
99.5699
99.5543
99.5394
99.5253
99.5119
99.4994
99.4875
99.4765
99.4663
99.457
99.4485
99.441
99.4344
99.4287
99.424
99.4203
99.4176
99.4159
99.4152
101.088
101.089
101.091
101.093
101.096
101.099
101.104
101.108
101.114
101.119
101.126
101.132
101.138
101.145
101.151
101.157
101.162
101.166
101.169
101.171
101.171
101.17
101.167
101.162
101.155
101.147
101.137
101.125
101.111
101.097
101.081
101.064
101.047
101.029
101.011
100.993
100.975
100.957
100.94
100.924
100.908
100.894
100.881
100.868
100.857
100.848
100.839
100.832
100.826
100.822
100.818
100.816
100.815
100.814
100.815
100.816
100.818
100.821
100.824
100.827
100.83
100.834
100.838
100.841
100.845
100.848
100.852
100.855
100.858
100.86
100.862
100.864
100.866
100.867
100.869
100.869
100.87
100.871
100.871
100.871
100.871
100.871
100.87
100.87
100.869
100.868
100.868
100.867
100.865
100.864
100.863
100.861
100.859
100.857
100.855
100.852
100.849
100.847
100.844
100.841
100.838
100.835
100.832
100.829
100.826
100.823
100.82
100.818
100.816
100.813
100.811
100.81
100.808
100.807
100.806
100.805
100.804
100.803
100.803
100.802
100.802
100.801
100.801
100.801
100.8
100.8
100.799
100.798
100.798
100.797
100.796
100.795
100.794
100.793
100.792
100.791
100.789
100.788
100.786
100.785
100.784
100.783
100.781
100.781
100.78
100.779
100.779
100.779
100.78
100.781
100.782
100.785
100.787
100.791
100.795
100.8
100.805
100.812
100.819
100.828
100.838
100.848
100.86
100.873
100.887
100.902
100.918
100.935
100.954
100.973
100.994
101.015
101.036
101.059
101.081
101.104
101.126
101.147
101.168
101.188
101.206
101.222
101.237
101.248
101.257
101.263
101.266
101.266
101.261
101.253
101.241
101.226
101.206
101.183
101.156
101.126
101.092
101.056
101.016
100.974
100.93
100.884
100.836
100.786
100.736
100.685
100.634
100.582
100.531
100.48
100.43
100.381
100.333
100.287
100.242
100.198
100.156
100.116
100.078
100.042
100.007
99.9745
99.9436
99.9143
99.8867
99.8606
99.836
99.8127
99.7908
99.7701
99.7505
99.7319
99.7143
99.6975
99.6816
99.6665
99.652
99.6383
99.6253
99.6129
99.6011
99.59
99.5795
99.5697
99.5606
99.5522
99.5444
99.5374
99.5312
99.5257
99.521
99.5172
99.5141
99.5119
99.5105
99.5099
101.09
101.091
101.093
101.095
101.098
101.101
101.105
101.11
101.115
101.12
101.126
101.132
101.139
101.145
101.151
101.156
101.161
101.165
101.167
101.169
101.169
101.168
101.164
101.16
101.153
101.145
101.135
101.123
101.11
101.096
101.08
101.064
101.047
101.029
101.012
100.994
100.976
100.958
100.941
100.925
100.91
100.895
100.882
100.87
100.858
100.849
100.84
100.833
100.827
100.822
100.818
100.816
100.814
100.814
100.814
100.815
100.817
100.819
100.822
100.825
100.829
100.832
100.836
100.84
100.844
100.847
100.85
100.854
100.857
100.859
100.862
100.864
100.866
100.868
100.869
100.87
100.871
100.872
100.872
100.873
100.873
100.873
100.873
100.873
100.872
100.872
100.871
100.87
100.869
100.868
100.866
100.865
100.863
100.861
100.859
100.857
100.854
100.852
100.849
100.846
100.843
100.84
100.837
100.834
100.831
100.829
100.826
100.823
100.821
100.818
100.816
100.814
100.812
100.811
100.809
100.808
100.807
100.806
100.805
100.804
100.803
100.803
100.802
100.801
100.801
100.8
100.8
100.799
100.798
100.798
100.797
100.796
100.795
100.794
100.793
100.791
100.79
100.789
100.788
100.786
100.785
100.784
100.783
100.783
100.782
100.782
100.782
100.782
100.783
100.785
100.787
100.789
100.792
100.796
100.801
100.807
100.813
100.821
100.829
100.839
100.849
100.861
100.873
100.887
100.902
100.918
100.935
100.953
100.972
100.992
101.013
101.034
101.055
101.077
101.098
101.12
101.14
101.16
101.178
101.195
101.211
101.224
101.235
101.243
101.248
101.25
101.249
101.244
101.236
101.225
101.21
101.191
101.169
101.143
101.115
101.083
101.048
101.011
100.971
100.929
100.886
100.84
100.794
100.747
100.698
100.65
100.601
100.553
100.505
100.458
100.411
100.366
100.322
100.28
100.239
100.2
100.162
100.127
100.093
100.061
100.031
100.003
99.9762
99.9514
99.9283
99.9068
99.8867
99.8679
99.8505
99.8342
99.819
99.8048
99.7914
99.7789
99.7672
99.7561
99.7457
99.7358
99.7265
99.7178
99.7095
99.7017
99.6944
99.6876
99.6813
99.6755
99.6702
99.6654
99.6611
99.6574
99.6542
99.6515
99.6494
99.6479
99.647
99.6467
101.092
101.093
101.095
101.097
101.1
101.103
101.107
101.111
101.116
101.122
101.127
101.133
101.139
101.145
101.15
101.155
101.16
101.163
101.165
101.167
101.166
101.165
101.162
101.157
101.15
101.142
101.133
101.121
101.109
101.095
101.08
101.064
101.047
101.03
101.012
100.995
100.977
100.96
100.943
100.927
100.911
100.897
100.883
100.871
100.86
100.85
100.841
100.834
100.827
100.822
100.818
100.816
100.814
100.813
100.813
100.814
100.816
100.818
100.821
100.824
100.827
100.831
100.834
100.838
100.842
100.845
100.849
100.852
100.855
100.858
100.861
100.864
100.866
100.868
100.87
100.871
100.872
100.873
100.874
100.875
100.876
100.876
100.876
100.876
100.876
100.875
100.875
100.874
100.873
100.872
100.871
100.87
100.868
100.866
100.864
100.862
100.86
100.857
100.855
100.852
100.85
100.847
100.844
100.841
100.838
100.835
100.832
100.83
100.827
100.824
100.822
100.82
100.817
100.815
100.813
100.812
100.81
100.808
100.807
100.806
100.805
100.804
100.803
100.802
100.802
100.801
100.8
100.8
100.799
100.798
100.797
100.796
100.796
100.795
100.794
100.793
100.791
100.79
100.789
100.788
100.787
100.787
100.786
100.785
100.785
100.785
100.786
100.787
100.788
100.79
100.793
100.796
100.8
100.805
100.811
100.817
100.825
100.833
100.843
100.853
100.865
100.878
100.892
100.907
100.923
100.94
100.958
100.977
100.996
101.016
101.037
101.057
101.078
101.098
101.118
101.137
101.155
101.172
101.187
101.201
101.212
101.221
101.227
101.23
101.231
101.228
101.222
101.213
101.201
101.185
101.166
101.144
101.119
101.091
101.061
101.027
100.992
100.954
100.915
100.873
100.831
100.787
100.743
100.697
100.652
100.607
100.562
100.517
100.473
100.43
100.388
100.347
100.308
100.271
100.235
100.201
100.169
100.139
100.11
100.084
100.06
100.037
100.016
99.9972
99.9798
99.964
99.9497
99.9367
99.925
99.9144
99.9049
99.8963
99.8886
99.8816
99.8752
99.8695
99.8643
99.8595
99.8551
99.8512
99.8475
99.8442
99.8411
99.8383
99.8357
99.8333
99.8312
99.8293
99.8277
99.8262
99.825
99.824
99.8232
99.8227
99.8223
99.8222
101.095
101.096
101.097
101.099
101.102
101.105
101.109
101.114
101.118
101.123
101.129
101.134
101.14
101.145
101.15
101.154
101.158
101.161
101.163
101.164
101.163
101.162
101.158
101.153
101.147
101.139
101.13
101.119
101.107
101.093
101.078
101.063
101.047
101.03
101.013
100.996
100.978
100.961
100.945
100.929
100.913
100.899
100.885
100.873
100.862
100.851
100.843
100.835
100.828
100.823
100.819
100.816
100.814
100.813
100.812
100.813
100.814
100.816
100.819
100.822
100.825
100.828
100.832
100.836
100.84
100.843
100.847
100.851
100.854
100.857
100.86
100.863
100.866
100.868
100.87
100.872
100.874
100.875
100.877
100.878
100.879
100.879
100.88
100.88
100.88
100.88
100.88
100.879
100.878
100.877
100.876
100.875
100.874
100.872
100.87
100.868
100.866
100.864
100.862
100.859
100.857
100.854
100.851
100.849
100.846
100.843
100.84
100.837
100.834
100.831
100.828
100.826
100.823
100.821
100.818
100.816
100.814
100.812
100.81
100.809
100.807
100.806
100.805
100.804
100.803
100.802
100.801
100.8
100.8
100.799
100.798
100.797
100.797
100.796
100.795
100.794
100.793
100.792
100.792
100.791
100.79
100.79
100.79
100.79
100.79
100.791
100.792
100.793
100.795
100.798
100.802
100.806
100.811
100.817
100.824
100.831
100.84
100.85
100.861
100.873
100.886
100.9
100.916
100.932
100.949
100.967
100.986
101.005
101.024
101.044
101.064
101.083
101.102
101.12
101.138
101.154
101.168
101.181
101.192
101.2
101.206
101.21
101.211
101.209
101.204
101.196
101.185
101.171
101.154
101.134
101.112
101.086
101.059
101.028
100.996
100.962
100.925
100.888
100.849
100.808
100.767
100.725
100.683
100.641
100.599
100.557
100.516
100.476
100.436
100.398
100.361
100.326
100.292
100.26
100.23
100.202
100.176
100.152
100.13
100.111
100.093
100.077
100.063
100.05
100.04
100.031
100.023
100.017
100.012
100.009
100.006
100.004
100.003
100.003
100.003
100.004
100.005
100.006
100.008
100.01
100.012
100.014
100.016
100.018
100.02
100.022
100.023
100.025
100.027
100.028
100.029
100.03
100.031
100.032
100.032
100.032
101.098
101.099
101.1
101.102
101.105
101.108
101.112
101.116
101.12
101.125
101.13
101.135
101.14
101.145
101.149
101.153
101.157
101.159
101.16
101.161
101.16
101.158
101.154
101.149
101.143
101.135
101.126
101.116
101.104
101.091
101.077
101.062
101.046
101.03
101.013
100.997
100.98
100.963
100.947
100.931
100.916
100.902
100.888
100.876
100.864
100.854
100.845
100.837
100.83
100.824
100.82
100.816
100.814
100.812
100.812
100.812
100.813
100.815
100.817
100.82
100.823
100.826
100.83
100.833
100.837
100.841
100.845
100.849
100.852
100.856
100.859
100.862
100.865
100.868
100.871
100.873
100.875
100.877
100.879
100.88
100.882
100.883
100.884
100.884
100.885
100.885
100.885
100.884
100.884
100.883
100.882
100.881
100.88
100.879
100.877
100.876
100.874
100.872
100.87
100.867
100.865
100.862
100.86
100.857
100.854
100.851
100.848
100.845
100.842
100.839
100.836
100.832
100.829
100.826
100.823
100.821
100.818
100.816
100.814
100.812
100.81
100.808
100.807
100.805
100.804
100.803
100.802
100.801
100.801
100.8
100.799
100.799
100.798
100.797
100.797
100.796
100.795
100.795
100.795
100.794
100.794
100.794
100.794
100.795
100.796
100.798
100.8
100.802
100.805
100.809
100.814
100.819
100.825
100.833
100.841
100.85
100.861
100.872
100.885
100.898
100.913
100.929
100.945
100.962
100.98
100.999
101.018
101.037
101.055
101.074
101.092
101.109
101.125
101.14
101.154
101.166
101.175
101.183
101.188
101.191
101.191
101.189
101.184
101.176
101.165
101.152
101.136
101.117
101.096
101.072
101.046
101.018
100.988
100.956
100.922
100.887
100.851
100.814
100.775
100.737
100.697
100.658
100.619
100.58
100.541
100.503
100.467
100.431
100.396
100.363
100.332
100.303
100.275
100.249
100.226
100.204
100.185
100.168
100.153
100.14
100.13
100.121
100.114
100.11
100.107
100.105
100.106
100.107
100.11
100.114
100.119
100.125
100.131
100.139
100.146
100.154
100.163
100.171
100.179
100.188
100.196
100.204
100.212
100.219
100.226
100.233
100.239
100.245
100.25
100.254
100.258
100.261
100.264
100.266
100.267
100.268
101.101
101.102
101.103
101.105
101.108
101.111
101.115
101.118
101.123
101.127
101.132
101.136
101.141
101.145
101.149
101.152
101.155
101.157
101.157
101.157
101.156
101.154
101.15
101.145
101.139
101.131
101.122
101.112
101.101
101.088
101.075
101.061
101.046
101.03
101.014
100.998
100.981
100.965
100.949
100.934
100.919
100.905
100.891
100.879
100.867
100.857
100.847
100.839
100.832
100.826
100.821
100.817
100.815
100.813
100.812
100.812
100.812
100.813
100.815
100.818
100.821
100.824
100.827
100.831
100.835
100.838
100.842
100.846
100.85
100.854
100.858
100.861
100.865
100.868
100.871
100.874
100.877
100.879
100.881
100.883
100.885
100.886
100.888
100.889
100.889
100.89
100.89
100.89
100.89
100.889
100.889
100.888
100.887
100.886
100.884
100.883
100.881
100.88
100.878
100.875
100.873
100.871
100.868
100.866
100.863
100.86
100.857
100.853
100.85
100.846
100.843
100.839
100.836
100.833
100.829
100.826
100.823
100.82
100.817
100.815
100.813
100.811
100.809
100.807
100.806
100.805
100.804
100.803
100.802
100.801
100.801
100.8
100.8
100.799
100.799
100.799
100.798
100.798
100.798
100.799
100.799
100.8
100.801
100.803
100.804
100.807
100.81
100.814
100.818
100.823
100.829
100.836
100.844
100.853
100.863
100.875
100.887
100.9
100.914
100.929
100.946
100.962
100.98
100.998
101.016
101.034
101.052
101.07
101.087
101.103
101.118
101.132
101.144
101.155
101.163
101.169
101.173
101.175
101.174
101.171
101.165
101.156
101.145
101.131
101.115
101.096
101.075
101.052
101.027
101
100.972
100.941
100.91
100.876
100.842
100.807
100.771
100.735
100.698
100.661
100.624
100.588
100.552
100.516
100.482
100.448
100.416
100.385
100.356
100.329
100.303
100.28
100.259
100.24
100.223
100.208
100.196
100.186
100.179
100.174
100.171
100.17
100.171
100.175
100.18
100.186
100.195
100.205
100.216
100.228
100.241
100.255
100.269
100.284
100.3
100.315
100.331
100.347
100.362
100.377
100.392
100.406
100.419
100.432
100.445
100.456
100.466
100.476
100.484
100.492
100.498
100.504
100.508
100.511
100.513
100.514
101.105
101.105
101.107
101.109
101.111
101.114
101.117
101.121
101.125
101.129
101.133
101.138
101.141
101.145
101.148
101.151
101.153
101.154
101.154
101.153
101.152
101.149
101.145
101.14
101.134
101.126
101.118
101.108
101.097
101.085
101.072
101.059
101.045
101.03
101.014
100.999
100.983
100.967
100.952
100.937
100.922
100.908
100.895
100.882
100.871
100.86
100.851
100.842
100.835
100.829
100.823
100.819
100.816
100.814
100.812
100.811
100.812
100.812
100.814
100.816
100.818
100.821
100.825
100.828
100.832
100.836
100.84
100.844
100.848
100.852
100.856
100.86
100.864
100.868
100.872
100.875
100.878
100.881
100.884
100.886
100.888
100.89
100.892
100.893
100.894
100.895
100.895
100.896
100.896
100.895
100.895
100.895
100.894
100.893
100.892
100.89
100.889
100.887
100.886
100.884
100.882
100.879
100.877
100.874
100.871
100.868
100.865
100.862
100.858
100.854
100.851
100.847
100.843
100.839
100.835
100.832
100.828
100.825
100.822
100.819
100.816
100.814
100.812
100.81
100.808
100.807
100.805
100.804
100.804
100.803
100.802
100.802
100.802
100.802
100.802
100.802
100.802
100.803
100.804
100.805
100.806
100.808
100.81
100.812
100.815
100.819
100.824
100.829
100.835
100.842
100.85
100.859
100.869
100.88
100.892
100.905
100.919
100.934
100.95
100.966
100.983
101.001
101.018
101.036
101.054
101.071
101.087
101.102
101.116
101.129
101.14
101.148
101.155
101.16
101.162
101.162
101.16
101.154
101.147
101.137
101.124
101.11
101.093
101.074
101.052
101.029
101.005
100.978
100.95
100.921
100.89
100.858
100.826
100.792
100.758
100.724
100.689
100.655
100.62
100.585
100.552
100.518
100.486
100.454
100.424
100.395
100.368
100.343
100.319
100.297
100.278
100.261
100.246
100.234
100.224
100.216
100.212
100.209
100.209
100.212
100.217
100.224
100.233
100.245
100.258
100.273
100.289
100.307
100.326
100.346
100.367
100.389
100.411
100.434
100.456
100.479
100.501
100.523
100.545
100.566
100.587
100.606
100.625
100.642
100.659
100.674
100.688
100.701
100.713
100.723
100.731
100.738
100.744
100.748
100.751
100.752
101.108
101.109
101.11
101.112
101.114
101.117
101.12
101.124
101.128
101.131
101.135
101.139
101.142
101.145
101.147
101.149
101.151
101.151
101.151
101.149
101.147
101.144
101.14
101.134
101.128
101.121
101.112
101.103
101.093
101.082
101.069
101.057
101.043
101.029
101.015
101
100.985
100.97
100.955
100.94
100.926
100.912
100.899
100.887
100.875
100.865
100.855
100.847
100.839
100.832
100.826
100.822
100.818
100.815
100.813
100.812
100.812
100.812
100.813
100.814
100.817
100.819
100.822
100.826
100.829
100.833
100.837
100.842
100.846
100.85
100.855
100.859
100.863
100.868
100.872
100.876
100.879
100.883
100.886
100.889
100.891
100.894
100.896
100.897
100.899
100.9
100.901
100.901
100.901
100.902
100.901
100.901
100.901
100.9
100.899
100.898
100.897
100.895
100.894
100.892
100.89
100.888
100.885
100.883
100.88
100.877
100.873
100.87
100.866
100.862
100.858
100.854
100.85
100.846
100.841
100.837
100.833
100.83
100.826
100.823
100.82
100.817
100.815
100.812
100.811
100.809
100.808
100.806
100.806
100.805
100.805
100.805
100.805
100.805
100.806
100.806
100.807
100.809
100.81
100.812
100.815
100.818
100.821
100.825
100.83
100.835
100.841
100.848
100.856
100.865
100.875
100.886
100.898
100.911
100.926
100.94
100.956
100.973
100.99
101.007
101.024
101.042
101.059
101.075
101.091
101.105
101.118
101.129
101.139
101.146
101.151
101.154
101.155
101.153
101.148
101.141
101.131
101.12
101.106
101.089
101.071
101.051
101.029
101.005
100.98
100.953
100.925
100.897
100.867
100.836
100.804
100.772
100.74
100.707
100.674
100.641
100.609
100.576
100.544
100.513
100.482
100.453
100.424
100.397
100.372
100.348
100.326
100.306
100.288
100.272
100.259
100.249
100.24
100.235
100.232
100.232
100.234
100.239
100.247
100.257
100.27
100.284
100.301
100.32
100.341
100.363
100.387
100.412
100.439
100.466
100.494
100.522
100.55
100.579
100.607
100.635
100.663
100.69
100.716
100.742
100.766
100.789
100.811
100.832
100.851
100.869
100.885
100.9
100.913
100.925
100.935
100.943
100.949
100.954
100.957
100.958
101.112
101.112
101.114
101.116
101.118
101.12
101.123
101.127
101.13
101.133
101.137
101.14
101.142
101.145
101.147
101.148
101.148
101.148
101.147
101.145
101.142
101.138
101.134
101.128
101.122
101.115
101.107
101.098
101.088
101.077
101.066
101.054
101.041
101.028
101.014
101
100.986
100.972
100.958
100.944
100.93
100.917
100.904
100.892
100.881
100.87
100.86
100.852
100.844
100.837
100.83
100.825
100.821
100.817
100.815
100.813
100.812
100.812
100.812
100.813
100.815
100.817
100.82
100.823
100.827
100.831
100.835
100.839
100.844
100.848
100.853
100.858
100.863
100.867
100.872
100.876
100.88
100.884
100.888
100.891
100.894
100.897
100.899
100.901
100.903
100.904
100.906
100.906
100.907
100.907
100.908
100.907
100.907
100.907
100.906
100.905
100.904
100.903
100.901
100.9
100.898
100.896
100.893
100.891
100.888
100.885
100.881
100.878
100.874
100.87
100.865
100.861
100.857
100.852
100.848
100.843
100.839
100.835
100.831
100.827
100.824
100.821
100.818
100.816
100.814
100.812
100.81
100.809
100.808
100.808
100.808
100.808
100.808
100.809
100.81
100.812
100.814
100.816
100.819
100.822
100.826
100.83
100.835
100.841
100.847
100.855
100.863
100.872
100.883
100.894
100.906
100.92
100.934
100.949
100.965
100.982
100.999
101.016
101.033
101.05
101.067
101.083
101.098
101.111
101.123
101.133
101.142
101.147
101.151
101.152
101.15
101.146
101.139
101.13
101.119
101.105
101.089
101.07
101.05
101.029
101.005
100.981
100.955
100.928
100.9
100.871
100.841
100.811
100.781
100.75
100.719
100.687
100.656
100.625
100.594
100.563
100.533
100.504
100.475
100.447
100.421
100.395
100.372
100.349
100.329
100.31
100.294
100.28
100.268
100.258
100.251
100.247
100.246
100.247
100.251
100.257
100.267
100.279
100.293
100.31
100.33
100.351
100.375
100.401
100.428
100.456
100.486
100.517
100.549
100.581
100.613
100.646
100.679
100.711
100.743
100.774
100.804
100.834
100.862
100.889
100.915
100.94
100.963
100.984
101.004
101.022
101.038
101.053
101.066
101.078
101.087
101.095
101.101
101.106
101.109
101.11
101.115
101.116
101.117
101.119
101.121
101.124
101.127
101.129
101.132
101.135
101.138
101.141
101.143
101.144
101.145
101.146
101.145
101.144
101.143
101.14
101.137
101.132
101.128
101.122
101.116
101.108
101.101
101.092
101.083
101.073
101.062
101.051
101.039
101.027
101.014
101.001
100.988
100.975
100.961
100.948
100.935
100.922
100.91
100.898
100.887
100.876
100.867
100.858
100.849
100.842
100.835
100.83
100.825
100.821
100.817
100.815
100.813
100.813
100.812
100.813
100.814
100.816
100.818
100.821
100.825
100.828
100.832
100.837
100.841
100.846
100.851
100.856
100.861
100.866
100.871
100.876
100.881
100.885
100.889
100.893
100.896
100.899
100.902
100.905
100.907
100.909
100.91
100.911
100.912
100.913
100.913
100.913
100.913
100.913
100.913
100.912
100.911
100.91
100.909
100.907
100.905
100.903
100.901
100.898
100.895
100.892
100.888
100.885
100.881
100.877
100.872
100.868
100.863
100.858
100.854
100.849
100.845
100.84
100.836
100.832
100.829
100.825
100.822
100.82
100.817
100.815
100.814
100.813
100.812
100.812
100.812
100.812
100.813
100.815
100.817
100.819
100.822
100.825
100.83
100.834
100.84
100.846
100.853
100.861
100.87
100.879
100.89
100.902
100.915
100.928
100.943
100.959
100.975
100.992
101.009
101.026
101.044
101.061
101.077
101.093
101.107
101.12
101.131
101.14
101.147
101.152
101.153
101.153
101.149
101.143
101.134
101.122
101.108
101.092
101.074
101.054
101.032
101.008
100.983
100.957
100.93
100.903
100.874
100.845
100.816
100.786
100.756
100.726
100.696
100.666
100.636
100.607
100.578
100.549
100.521
100.493
100.467
100.441
100.416
100.393
100.371
100.35
100.332
100.315
100.3
100.287
100.276
100.268
100.262
100.259
100.258
100.26
100.265
100.273
100.283
100.296
100.312
100.33
100.351
100.374
100.399
100.426
100.454
100.485
100.516
100.549
100.582
100.617
100.651
100.686
100.72
100.755
100.788
100.821
100.854
100.885
100.915
100.943
100.971
100.997
101.021
101.044
101.065
101.084
101.102
101.118
101.133
101.146
101.157
101.167
101.175
101.182
101.187
101.191
101.193
101.194
101.119
101.119
101.121
101.122
101.124
101.127
101.129
101.132
101.135
101.137
101.14
101.142
101.143
101.144
101.144
101.144
101.143
101.141
101.138
101.135
101.131
101.126
101.121
101.115
101.109
101.102
101.094
101.086
101.077
101.068
101.058
101.047
101.037
101.025
101.014
101.002
100.989
100.977
100.965
100.952
100.94
100.928
100.916
100.905
100.894
100.884
100.874
100.865
100.856
100.848
100.841
100.835
100.83
100.825
100.821
100.818
100.816
100.814
100.813
100.813
100.814
100.815
100.817
100.82
100.823
100.826
100.83
100.835
100.839
100.844
100.849
100.855
100.86
100.865
100.87
100.876
100.881
100.885
100.89
100.894
100.898
100.901
100.905
100.908
100.91
100.912
100.914
100.915
100.917
100.918
100.918
100.919
100.919
100.919
100.918
100.918
100.917
100.916
100.915
100.913
100.912
100.91
100.907
100.905
100.902
100.898
100.895
100.891
100.887
100.883
100.878
100.874
100.869
100.864
100.859
100.855
100.85
100.846
100.841
100.837
100.833
100.83
100.827
100.824
100.822
100.82
100.818
100.817
100.817
100.817
100.817
100.818
100.82
100.822
100.825
100.828
100.832
100.837
100.843
100.85
100.857
100.865
100.875
100.885
100.896
100.909
100.922
100.936
100.952
100.968
100.985
101.002
101.02
101.038
101.055
101.073
101.089
101.105
101.119
101.131
101.141
101.15
101.155
101.158
101.158
101.156
101.15
101.142
101.131
101.117
101.101
101.082
101.062
101.04
101.016
100.99
100.964
100.936
100.908
100.879
100.85
100.82
100.791
100.761
100.732
100.703
100.673
100.645
100.616
100.589
100.561
100.535
100.509
100.483
100.459
100.436
100.413
100.392
100.372
100.354
100.337
100.322
100.308
100.297
100.288
100.281
100.276
100.274
100.274
100.277
100.283
100.291
100.302
100.315
100.331
100.35
100.371
100.394
100.419
100.446
100.475
100.505
100.537
100.57
100.603
100.638
100.672
100.706
100.741
100.775
100.808
100.841
100.872
100.903
100.932
100.96
100.986
101.011
101.035
101.056
101.076
101.095
101.112
101.127
101.141
101.153
101.164
101.173
101.182
101.189
101.195
101.199
101.203
101.205
101.207
101.208
101.122
101.123
101.124
101.126
101.128
101.13
101.132
101.135
101.137
101.139
101.141
101.142
101.143
101.143
101.143
101.141
101.139
101.137
101.133
101.129
101.125
101.12
101.114
101.108
101.101
101.094
101.087
101.079
101.071
101.062
101.053
101.044
101.034
101.024
101.013
101.002
100.991
100.98
100.968
100.957
100.945
100.934
100.923
100.912
100.902
100.891
100.882
100.872
100.864
100.856
100.848
100.842
100.836
100.83
100.826
100.822
100.819
100.817
100.815
100.815
100.815
100.815
100.817
100.819
100.822
100.825
100.829
100.833
100.837
100.842
100.848
100.853
100.858
100.864
100.869
100.875
100.88
100.885
100.89
100.895
100.899
100.903
100.906
100.91
100.913
100.915
100.917
100.919
100.921