# vtk DataFile Version 2.0
HPC Tutorials: Michael Bader, Kaveh Rahnema, Oliver Meister
ASCII
DATASET RECTILINEAR_GRID
DIMENSIONS 257 257 1
X_COORDINATES 257 float
0
0.005
0.01
0.015
0.02
0.025
0.03
0.035
0.04
0.045
0.05
0.055
0.06
0.065
0.07
0.075
0.08
0.085
0.09
0.095
0.1
0.105
0.11
0.115
0.12
0.125
0.13
0.135
0.14
0.145
0.15
0.155
0.16
0.165
0.17
0.175
0.18
0.185
0.19
0.195
0.2
0.205
0.21
0.215
0.22
0.225
0.23
0.235
0.24
0.245
0.25
0.255
0.26
0.265
0.27
0.275
0.28
0.285
0.29
0.295
0.3
0.305
0.31
0.315
0.32
0.325
0.33
0.335
0.34
0.345
0.35
0.355
0.36
0.365
0.37
0.375
0.38
0.385
0.39
0.395
0.4
0.405
0.41
0.415
0.42
0.425
0.43
0.435
0.44
0.445
0.45
0.455
0.46
0.465
0.47
0.475
0.48
0.485
0.49
0.495
0.5
0.505
0.51
0.515
0.52
0.525
0.53
0.535
0.54
0.545
0.55
0.555
0.56
0.565
0.57
0.575
0.58
0.585
0.59
0.595
0.6
0.605
0.61
0.615
0.62
0.625
0.63
0.635
0.64
0.645
0.65
0.655
0.66
0.665
0.67
0.675
0.68
0.685
0.69
0.695
0.7
0.705
0.71
0.715
0.72
0.725
0.73
0.735
0.74
0.745
0.75
0.755
0.76
0.765
0.77
0.775
0.78
0.785
0.79
0.795
0.8
0.805
0.81
0.815
0.82
0.825
0.83
0.835
0.84
0.845
0.85
0.855
0.86
0.865
0.87
0.875
0.88
0.885
0.89
0.895
0.9
0.905
0.91
0.915
0.92
0.925
0.93
0.935
0.94
0.945
0.95
0.955
0.96
0.965
0.97
0.975
0.98
0.985
0.99
0.995
1
1.005
1.01
1.015
1.02
1.025
1.03
1.035
1.04
1.045
1.05
1.055
1.06
1.065
1.07
1.075
1.08
1.085
1.09
1.095
1.1
1.105
1.11
1.115
1.12
1.125
1.13
1.135
1.14
1.145
1.15
1.155
1.16
1.165
1.17
1.175
1.18
1.185
1.19
1.195
1.2
1.205
1.21
1.215
1.22
1.225
1.23
1.235
1.24
1.245
1.25
1.255
1.26
1.265
1.27
1.275
1.28
Y_COORDINATES 257 float
0
0.005
0.01
0.015
0.02
0.025
0.03
0.035
0.04
0.045
0.05
0.055
0.06
0.065
0.07
0.075
0.08
0.085
0.09
0.095
0.1
0.105
0.11
0.115
0.12
0.125
0.13
0.135
0.14
0.145
0.15
0.155
0.16
0.165
0.17
0.175
0.18
0.185
0.19
0.195
0.2
0.205
0.21
0.215
0.22
0.225
0.23
0.235
0.24
0.245
0.25
0.255
0.26
0.265
0.27
0.275
0.28
0.285
0.29
0.295
0.3
0.305
0.31
0.315
0.32
0.325
0.33
0.335
0.34
0.345
0.35
0.355
0.36
0.365
0.37
0.375
0.38
0.385
0.39
0.395
0.4
0.405
0.41
0.415
0.42
0.425
0.43
0.435
0.44
0.445
0.45
0.455
0.46
0.465
0.47
0.475
0.48
0.485
0.49
0.495
0.5
0.505
0.51
0.515
0.52
0.525
0.53
0.535
0.54
0.545
0.55
0.555
0.56
0.565
0.57
0.575
0.58
0.585
0.59
0.595
0.6
0.605
0.61
0.615
0.62
0.625
0.63
0.635
0.64
0.645
0.65
0.655
0.66
0.665
0.67
0.675
0.68
0.685
0.69
0.695
0.7
0.705
0.71
0.715
0.72
0.725
0.73
0.735
0.74
0.745
0.75
0.755
0.76
0.765
0.77
0.775
0.78
0.785
0.79
0.795
0.8
0.805
0.81
0.815
0.82
0.825
0.83
0.835
0.84
0.845
0.85
0.855
0.86
0.865
0.87
0.875
0.88
0.885
0.89
0.895
0.9
0.905
0.91
0.915
0.92
0.925
0.93
0.935
0.94
0.945
0.95
0.955
0.96
0.965
0.97
0.975
0.98
0.985
0.99
0.995
1
1.005
1.01
1.015
1.02
1.025
1.03
1.035
1.04
1.045
1.05
1.055
1.06
1.065
1.07
1.075
1.08
1.085
1.09
1.095
1.1
1.105
1.11
1.115
1.12
1.125
1.13
1.135
1.14
1.145
1.15
1.155
1.16
1.165
1.17
1.175
1.18
1.185
1.19
1.195
1.2
1.205
1.21
1.215
1.22
1.225
1.23
1.235
1.24
1.245
1.25
1.255
1.26
1.265
1.27
1.275
1.28
Z_COORDINATES 1 float
0
CELL_DATA 65536
SCALARS H float 1
LOOKUP_TABLE default
101.927
101.927
101.927
101.928
101.928
101.928
101.928
101.927
101.925
101.923
101.92
101.915
101.909
101.901
101.891
101.879
101.864
101.846
101.826
101.802
101.775
101.745
101.711
101.674
101.634
101.591
101.546
101.499
101.45
101.401
101.352
101.303
101.256
101.212
101.17
101.133
101.1
101.072
101.049
101.032
101.022
101.017
101.019
101.026
101.04
101.059
101.083
101.112
101.145
101.182
101.223
101.265
101.31
101.355
101.401
101.446
101.489
101.531
101.569
101.604
101.635
101.661
101.683
101.699
101.71
101.716
101.717
101.713
101.705
101.693
101.677
101.66
101.64
101.618
101.595
101.572
101.548
101.525
101.501
101.478
101.456
101.434
101.413
101.392
101.372
101.353
101.335
101.317
101.3
101.284
101.268
101.253
101.239
101.225
101.212
101.2
101.188
101.177
101.166
101.156
101.147
101.138
101.129
101.121
101.114
101.106
101.099
101.092
101.085
101.078
101.071
101.064
101.057
101.049
101.041
101.032
101.024
101.014
101.004
100.994
100.983
100.972
100.96
100.948
100.936
100.924
100.912
100.9
100.888
100.877
100.866
100.856
100.846
100.837
100.83
100.823
100.817
100.812
100.808
100.805
100.804
100.803
100.804
100.805
100.807
100.81
100.813
100.817
100.822
100.826
100.831
100.836
100.841
100.845
100.849
100.853
100.857
100.86
100.862
100.864
100.865
100.866
100.866
100.865
100.863
100.861
100.858
100.855
100.851
100.847
100.842
100.836
100.831
100.825
100.818
100.812
100.805
100.798
100.791
100.783
100.776
100.768
100.761
100.753
100.745
100.737
100.729
100.721
100.713
100.705
100.697
100.69
100.682
100.674
100.667
100.659
100.652
100.645
100.638
100.632
100.625
100.619
100.614
100.608
100.603
100.599
100.595
100.591
100.587
100.585
100.582
100.58
100.579
100.578
100.577
100.577
100.577
100.578
100.579
100.581
100.583
100.585
100.588
100.591
100.595
100.599
100.603
100.607
100.612
100.616
100.621
100.626
100.631
100.636
100.641
100.646
100.651
100.656
100.661
100.665
100.67
100.674
100.678
100.682
100.685
100.688
100.691
100.694
100.696
100.699
100.7
100.702
100.703
100.704
100.704
100.705
101.927
101.928
101.928
101.928
101.928
101.928
101.928
101.927
101.925
101.923
101.919
101.914
101.908
101.9
101.89
101.877
101.862
101.844
101.823
101.8
101.772
101.742
101.708
101.671
101.632
101.589
101.544
101.497
101.449
101.4
101.352
101.304
101.258
101.214
101.173
101.136
101.103
101.075
101.053
101.036
101.026
101.021
101.022
101.029
101.042
101.061
101.085
101.113
101.146
101.183
101.222
101.264
101.308
101.353
101.398
101.442
101.485
101.526
101.564
101.598
101.629
101.655
101.676
101.692
101.703
101.709
101.711
101.707
101.699
101.688
101.673
101.656
101.637
101.616
101.593
101.57
101.547
101.524
101.5
101.478
101.455
101.433
101.412
101.392
101.372
101.354
101.335
101.318
101.301
101.285
101.269
101.254
101.24
101.226
101.213
101.2
101.189
101.177
101.167
101.157
101.147
101.138
101.13
101.122
101.114
101.106
101.099
101.092
101.085
101.078
101.071
101.064
101.057
101.049
101.041
101.033
101.024
101.015
101.005
100.994
100.984
100.973
100.961
100.949
100.937
100.925
100.913
100.901
100.89
100.878
100.868
100.857
100.848
100.839
100.831
100.824
100.819
100.814
100.81
100.807
100.806
100.805
100.805
100.807
100.809
100.812
100.815
100.819
100.823
100.828
100.833
100.837
100.842
100.847
100.851
100.855
100.858
100.861
100.864
100.866
100.867
100.867
100.867
100.866
100.865
100.862
100.86
100.856
100.852
100.848
100.843
100.838
100.832
100.826
100.82
100.813
100.806
100.799
100.792
100.784
100.777
100.769
100.762
100.754
100.746
100.738
100.73
100.722
100.714
100.706
100.698
100.69
100.683
100.675
100.667
100.66
100.653
100.646
100.639
100.632
100.626
100.62
100.615
100.609
100.604
100.6
100.596
100.592
100.589
100.586
100.583
100.581
100.58
100.579
100.578
100.578
100.578
100.579
100.58
100.582
100.584
100.587
100.589
100.593
100.596
100.6
100.604
100.608
100.613
100.617
100.622
100.627
100.632
100.637
100.642
100.647
100.652
100.657
100.661
100.666
100.67
100.674
100.678
100.682
100.686
100.689
100.692
100.695
100.697
100.699
100.701
100.702
100.703
100.704
100.705
100.705
101.928
101.928
101.928
101.928
101.928
101.928
101.927
101.926
101.925
101.922
101.918
101.913
101.906
101.898
101.887
101.874
101.859
101.841
101.819
101.795
101.768
101.737
101.704
101.667
101.627
101.585
101.541
101.494
101.447
101.399
101.352
101.305
101.26
101.217
101.177
101.141
101.108
101.081
101.059
101.043
101.032
101.027
101.028
101.035
101.047
101.065
101.088
101.116
101.148
101.183
101.222
101.263
101.305
101.349
101.393
101.436
101.478
101.518
101.555
101.589
101.619
101.645
101.666
101.682
101.693
101.699
101.701
101.698
101.691
101.681
101.667
101.65
101.632
101.611
101.59
101.568
101.545
101.522
101.499
101.477
101.455
101.433
101.412
101.392
101.373
101.354
101.336
101.318
101.301
101.285
101.27
101.255
101.24
101.227
101.214
101.201
101.189
101.178
101.167
101.157
101.148
101.139
101.13
101.122
101.114
101.107
101.1
101.093
101.086
101.079
101.072
101.065
101.057
101.05
101.042
101.033
101.025
101.015
101.006
100.995
100.985
100.974
100.962
100.951
100.939
100.927
100.915
100.903
100.892
100.881
100.87
100.86
100.85
100.842
100.834
100.827
100.821
100.817
100.813
100.81
100.809
100.808
100.808
100.81
100.812
100.814
100.818
100.822
100.826
100.831
100.835
100.84
100.845
100.849
100.854
100.857
100.861
100.864
100.866
100.868
100.869
100.87
100.869
100.869
100.867
100.865
100.862
100.859
100.855
100.85
100.845
100.84
100.834
100.828
100.822
100.815
100.808
100.801
100.794
100.786
100.779
100.771
100.763
100.755
100.747
100.739
100.731
100.723
100.715
100.707
100.699
100.692
100.684
100.676
100.669
100.661
100.654
100.647
100.64
100.634
100.628
100.622
100.616
100.611
100.606
100.602
100.597
100.594
100.59
100.588
100.585
100.583
100.582
100.581
100.58
100.58
100.58
100.581
100.582
100.584
100.586
100.589
100.591
100.594
100.598
100.602
100.606
100.61
100.614
100.619
100.624
100.628
100.633
100.638
100.643
100.648
100.653
100.658
100.662
100.667
100.671
100.675
100.679
100.683
100.686
100.689
100.692
100.695
100.697
100.699
100.701
100.703
100.704
100.705
100.705
100.705
101.929
101.929
101.929
101.929
101.929
101.928
101.927
101.926
101.924
101.921
101.917
101.911
101.904
101.895
101.884
101.87
101.854
101.835
101.814
101.789
101.761
101.731
101.697
101.66
101.621
101.579
101.536
101.491
101.445
101.398
101.352
101.306
101.263
101.221
101.182
101.147
101.116
101.089
101.068
101.051
101.041
101.035
101.036
101.042
101.054
101.071
101.093
101.119
101.15
101.184
101.221
101.261
101.302
101.344
101.386
101.428
101.468
101.507
101.543
101.576
101.605
101.63
101.651
101.667
101.678
101.685
101.687
101.685
101.679
101.67
101.657
101.642
101.625
101.605
101.585
101.564
101.542
101.52
101.497
101.475
101.454
101.433
101.412
101.392
101.373
101.354
101.336
101.319
101.302
101.286
101.271
101.256
101.242
101.228
101.215
101.202
101.191
101.179
101.169
101.158
101.149
101.14
101.131
101.123
101.115
101.107
101.1
101.093
101.086
101.079
101.072
101.065
101.058
101.05
101.042
101.034
101.025
101.016
101.007
100.997
100.986
100.976
100.964
100.953
100.941
100.93
100.918
100.906
100.895
100.884
100.873
100.864
100.854
100.846
100.838
100.831
100.826
100.821
100.817
100.814
100.813
100.812
100.813
100.814
100.816
100.818
100.822
100.826
100.83
100.834
100.839
100.844
100.848
100.853
100.857
100.861
100.864
100.867
100.87
100.871
100.873
100.873
100.873
100.872
100.87
100.868
100.865
100.862
100.858
100.853
100.848
100.843
100.837
100.831
100.824
100.818
100.811
100.803
100.796
100.789
100.781
100.773
100.765
100.757
100.749
100.741
100.733
100.725
100.717
100.709
100.701
100.694
100.686
100.678
100.671
100.663
100.656
100.649
100.643
100.636
100.63
100.624
100.619
100.613
100.608
100.604
100.6
100.596
100.593
100.59
100.588
100.586
100.584
100.583
100.583
100.583
100.583
100.584
100.585
100.587
100.589
100.591
100.594
100.597
100.6
100.604
100.608
100.612
100.616
100.62
100.625
100.63
100.634
100.639
100.644
100.649
100.654
100.658
100.663
100.667
100.671
100.675
100.679
100.683
100.686
100.689
100.692
100.695
100.697
100.699
100.701
100.702
100.703
100.704
100.705
100.705
101.929
101.929
101.929
101.929
101.929
101.928
101.927
101.925
101.923
101.919
101.914
101.908
101.9
101.891
101.879
101.865
101.848
101.829
101.806
101.781
101.753
101.722
101.689
101.652
101.613
101.572
101.53
101.486
101.441
101.396
101.352
101.308
101.266
101.226
101.189
101.155
101.125
101.1
101.079
101.063
101.052
101.046
101.046
101.052
101.063
101.078
101.099
101.124
101.153
101.185
101.22
101.258
101.297
101.337
101.377
101.417
101.456
101.493
101.527
101.559
101.587
101.611
101.631
101.648
101.659
101.667
101.67
101.669
101.664
101.656
101.645
101.631
101.615
101.598
101.579
101.558
101.538
101.516
101.495
101.474
101.453
101.432
101.412
101.393
101.374
101.355
101.337
101.32
101.304
101.288
101.272
101.257
101.243
101.229
101.216
101.204
101.192
101.181
101.17
101.16
101.15
101.141
101.132
101.124
101.116
101.108
101.101
101.094
101.087
101.08
101.073
101.066
101.059
101.051
101.043
101.035
101.027
101.018
101.008
100.999
100.988
100.978
100.967
100.956
100.944
100.933
100.922
100.91
100.899
100.888
100.878
100.868
100.859
100.851
100.843
100.837
100.831
100.826
100.823
100.82
100.818
100.818
100.818
100.819
100.821
100.824
100.827
100.831
100.835
100.839
100.844
100.849
100.853
100.858
100.862
100.866
100.869
100.872
100.874
100.876
100.877
100.877
100.877
100.876
100.874
100.872
100.869
100.866
100.862
100.857
100.852
100.846
100.841
100.834
100.828
100.821
100.814
100.807
100.799
100.792
100.784
100.776
100.768
100.76
100.752
100.744
100.736
100.728
100.72
100.712
100.704
100.696
100.689
100.681
100.674
100.666
100.659
100.652
100.646
100.639
100.633
100.627
100.622
100.616
100.612
100.607
100.603
100.599
100.596
100.593
100.591
100.589
100.587
100.586
100.586
100.586
100.586
100.587
100.588
100.589
100.591
100.593
100.596
100.599
100.602
100.606
100.609
100.613
100.617
100.622
100.626
100.631
100.635
100.64
100.645
100.649
100.654
100.658
100.663
100.667
100.671
100.675
100.679
100.682
100.686
100.689
100.691
100.694
100.696
100.698
100.7
100.701
100.702
100.703
100.704
100.704
101.93
101.93
101.93
101.929
101.929
101.928
101.926
101.924
101.921
101.917
101.911
101.904
101.896
101.885
101.873
101.858
101.84
101.82
101.797
101.772
101.743
101.712
101.679
101.642
101.604
101.564
101.523
101.481
101.438
101.395
101.352
101.311
101.271
101.233
101.197
101.165
101.137
101.112
101.092
101.076
101.065
101.06
101.059
101.063
101.073
101.087
101.106
101.129
101.156
101.186
101.219
101.254
101.291
101.329
101.367
101.404
101.441
101.476
101.508
101.538
101.565
101.589
101.609
101.625
101.637
101.645
101.649
101.649
101.646
101.64
101.63
101.618
101.604
101.588
101.571
101.552
101.533
101.513
101.492
101.472
101.452
101.432
101.412
101.393
101.374
101.356
101.338
101.321
101.305
101.289
101.274
101.259
101.245
101.231
101.218
101.206
101.194
101.182
101.172
101.161
101.152
101.142
101.133
101.125
101.117
101.109
101.102
101.095
101.088
101.081
101.074
101.067
101.06
101.052
101.045
101.037
101.028
101.02
101.01
101.001
100.991
100.981
100.97
100.959
100.948
100.937
100.926
100.915
100.904
100.893
100.883
100.874
100.865
100.857
100.849
100.843
100.837
100.833
100.829
100.826
100.825
100.824
100.824
100.826
100.827
100.83
100.833
100.837
100.841
100.845
100.85
100.854
100.859
100.863
100.867
100.871
100.874
100.877
100.879
100.881
100.882
100.882
100.882
100.881
100.879
100.877
100.874
100.87
100.866
100.861
100.856
100.851
100.845
100.838
100.832
100.825
100.818
100.811
100.803
100.795
100.788
100.78
100.772
100.764
100.756
100.748
100.74
100.732
100.724
100.716
100.708
100.7
100.692
100.685
100.677
100.67
100.663
100.656
100.649
100.643
100.637
100.631
100.625
100.62
100.615
100.611
100.607
100.603
100.6
100.597
100.594
100.592
100.591
100.59
100.589
100.589
100.589
100.589
100.59
100.592
100.593
100.595
100.598
100.601
100.604
100.607
100.611
100.614
100.618
100.623
100.627
100.631
100.636
100.64
100.645
100.649
100.653
100.658
100.662
100.666
100.67
100.674
100.678
100.681
100.684
100.687
100.69
100.692
100.695
100.696
100.698
100.699
100.701
100.701
100.702
100.702
101.93
101.93
101.93
101.929
101.928
101.927
101.925
101.922
101.918
101.914
101.907
101.9
101.89
101.879
101.865
101.849
101.831
101.81
101.787
101.76
101.732
101.701
101.667
101.631
101.594
101.555
101.515
101.475
101.434
101.393
101.353
101.313
101.276
101.24
101.207
101.177
101.15
101.126
101.107
101.092
101.081
101.075
101.073
101.077
101.085
101.098
101.115
101.136
101.16
101.188
101.218
101.25
101.284
101.319
101.354
101.389
101.423
101.456
101.486
101.515
101.541
101.563
101.582
101.598
101.611
101.62
101.625
101.627
101.625
101.621
101.613
101.604
101.591
101.577
101.562
101.545
101.527
101.508
101.489
101.47
101.45
101.431
101.412
101.393
101.375
101.357
101.339
101.323
101.306
101.291
101.276
101.261
101.247
101.233
101.22
101.208
101.196
101.185
101.174
101.163
101.153
101.144
101.135
101.127
101.119
101.111
101.103
101.096
101.089
101.082
101.075
101.068
101.061
101.054
101.046
101.038
101.03
101.022
101.013
101.004
100.994
100.984
100.974
100.963
100.952
100.942
100.931
100.92
100.91
100.899
100.89
100.88
100.872
100.864
100.856
100.85
100.845
100.84
100.837
100.834
100.833
100.832
100.832
100.833
100.835
100.837
100.841
100.844
100.848
100.852
100.857
100.861
100.865
100.87
100.874
100.877
100.88
100.883
100.885
100.886
100.887
100.888
100.887
100.886
100.884
100.882
100.879
100.875
100.871
100.866
100.861
100.855
100.85
100.843
100.837
100.83
100.823
100.815
100.808
100.8
100.792
100.784
100.776
100.768
100.76
100.752
100.744
100.736
100.728
100.72
100.712
100.704
100.696
100.689
100.681
100.674
100.667
100.66
100.653
100.647
100.641
100.635
100.629
100.624
100.619
100.614
100.61
100.606
100.603
100.6
100.598
100.595
100.594
100.593
100.592
100.591
100.591
100.592
100.593
100.594
100.595
100.597
100.6
100.602
100.605
100.608
100.612
100.615
100.619
100.623
100.627
100.631
100.635
100.64
100.644
100.648
100.652
100.657
100.661
100.665
100.669
100.672
100.676
100.679
100.682
100.685
100.688
100.69
100.692
100.694
100.696
100.697
100.698
100.699
100.699
100.699
101.93
101.93
101.93
101.929
101.927
101.926
101.923
101.92
101.915
101.91
101.903
101.894
101.883
101.871
101.856
101.84
101.82
101.799
101.774
101.748
101.719
101.688
101.654
101.619
101.583
101.545
101.507
101.468
101.43
101.391
101.353
101.317
101.282
101.249
101.218
101.189
101.164
101.142
101.123
101.109
101.098
101.092
101.09
101.092
101.099
101.109
101.124
101.143
101.164
101.189
101.217
101.246
101.277
101.308
101.34
101.372
101.403
101.434
101.462
101.489
101.513
101.534
101.553
101.569
101.582
101.592
101.598
101.602
101.602
101.6
101.594
101.587
101.577
101.565
101.551
101.536
101.52
101.503
101.485
101.467
101.448
101.43
101.411
101.393
101.375
101.358
101.341
101.324
101.308
101.293
101.278
101.263
101.249
101.236
101.223
101.21
101.198
101.187
101.176
101.166
101.156
101.146
101.137
101.129
101.121
101.113
101.105
101.098
101.091
101.084
101.077
101.07
101.063
101.056
101.048
101.041
101.033
101.024
101.016
101.007
100.997
100.988
100.978
100.968
100.957
100.947
100.936
100.926
100.916
100.906
100.897
100.888
100.879
100.872
100.865
100.858
100.853
100.849
100.845
100.843
100.841
100.841
100.841
100.842
100.843
100.846
100.849
100.852
100.856
100.86
100.864
100.868
100.873
100.877
100.88
100.884
100.887
100.889
100.891
100.893
100.893
100.893
100.893
100.892
100.89
100.887
100.884
100.881
100.876
100.872
100.866
100.861
100.855
100.849
100.842
100.835
100.828
100.82
100.813
100.805
100.797
100.789
100.781
100.773
100.765
100.757
100.749
100.741
100.733
100.725
100.717
100.709
100.701
100.693
100.686
100.678
100.671
100.664
100.657
100.651
100.645
100.639
100.633
100.628
100.623
100.618
100.614
100.61
100.606
100.603
100.601
100.599
100.597
100.595
100.594
100.594
100.594
100.594
100.595
100.596
100.597
100.599
100.601
100.604
100.606
100.609
100.612
100.616
100.619
100.623
100.627
100.631
100.635
100.639
100.643
100.647
100.651
100.655
100.659
100.663
100.667
100.67
100.674
100.677
100.68
100.683
100.685
100.688
100.69
100.691
100.693
100.694
100.695
100.696
100.697
100.697
101.93
101.93
101.929
101.928
101.926
101.923
101.92
101.916
101.911
101.904
101.896
101.887
101.875
101.862
101.846
101.828
101.808
101.785
101.761
101.734
101.704
101.673
101.641
101.606
101.571
101.535
101.499
101.462
101.426
101.39
101.355
101.321
101.289
101.258
101.229
101.203
101.18
101.159
101.142
101.128
101.117
101.11
101.107
101.108
101.113
101.122
101.135
101.15
101.169
101.191
101.215
101.241
101.268
101.296
101.325
101.354
101.382
101.409
101.435
101.46
101.483
101.503
101.522
101.537
101.551
101.561
101.569
101.574
101.577
101.576
101.574
101.568
101.561
101.551
101.54
101.527
101.512
101.497
101.48
101.463
101.446
101.428
101.411
101.393
101.376
101.359
101.342
101.326
101.31
101.295
101.28
101.265
101.251
101.238
101.225
101.213
101.201
101.19
101.179
101.168
101.158
101.149
101.14
101.131
101.123
101.115
101.108
101.1
101.093
101.086
101.079
101.072
101.065
101.058
101.051
101.043
101.036
101.027
101.019
101.01
101.001
100.992
100.982
100.973
100.963
100.953
100.943
100.933
100.923
100.914
100.904
100.896
100.888
100.88
100.874
100.868
100.862
100.858
100.855
100.852
100.851
100.85
100.85
100.851
100.853
100.855
100.858
100.861
100.865
100.868
100.872
100.876
100.88
100.884
100.888
100.891
100.894
100.896
100.898
100.899
100.9
100.9
100.899
100.898
100.896
100.893
100.89
100.886
100.882
100.877
100.872
100.867
100.861
100.854
100.848
100.841
100.834
100.826
100.819
100.811
100.803
100.795
100.787
100.779
100.771
100.762
100.754
100.746
100.738
100.73
100.722
100.714
100.706
100.698
100.69
100.683
100.675
100.668
100.661
100.655
100.649
100.642
100.637
100.631
100.626
100.622
100.617
100.613
100.61
100.607
100.604
100.602
100.6
100.598
100.597
100.597
100.596
100.596
100.597
100.598
100.599
100.601
100.603
100.605
100.608
100.61
100.613
100.617
100.62
100.623
100.627
100.631
100.635
100.639
100.643
100.647
100.65
100.654
100.658
100.662
100.665
100.669
100.672
100.675
100.678
100.681
100.683
100.685
100.687
100.689
100.691
100.692
100.693
100.694
100.694
100.694
101.929
101.928
101.927
101.926
101.923
101.92
101.917
101.912
101.906
101.898
101.889
101.878
101.866
101.851
101.834
101.815
101.794
101.771
101.745
101.718
101.689
101.658
101.626
101.593
101.559
101.525
101.49
101.456
101.422
101.389
101.357
101.326
101.296
101.268
101.242
101.218
101.197
101.177
101.161
101.148
101.137
101.13
101.126
101.126
101.129
101.136
101.146
101.159
101.174
101.192
101.213
101.235
101.259
101.283
101.308
101.334
101.359
101.383
101.407
101.429
101.451
101.47
101.488
101.504
101.517
101.529
101.538
101.545
101.549
101.551
101.551
101.548
101.543
101.536
101.527
101.516
101.504
101.49
101.475
101.46
101.443
101.427
101.41
101.393
101.376
101.36
101.343
101.327
101.312
101.297
101.282
101.268
101.254
101.241
101.228
101.216
101.204
101.193
101.182
101.171
101.161
101.152
101.143
101.134
101.126
101.118
101.11
101.103
101.096
101.089
101.082
101.075
101.068
101.061
101.054
101.046
101.039
101.031
101.023
101.014
101.006
100.997
100.988
100.978
100.969
100.959
100.949
100.94
100.931
100.922
100.913
100.905
100.897
100.89
100.883
100.878
100.873
100.868
100.865
100.863
100.861
100.861
100.861
100.861
100.863
100.865
100.867
100.87
100.874
100.877
100.881
100.885
100.888
100.892
100.895
100.898
100.901
100.903
100.905
100.906
100.906
100.906
100.905
100.904
100.902
100.899
100.896
100.893
100.888
100.884
100.879
100.873
100.867
100.861
100.854
100.847
100.84
100.832
100.825
100.817
100.809
100.801
100.793
100.784
100.776
100.768
100.76
100.751
100.743
100.735
100.726
100.718
100.71
100.702
100.695
100.687
100.68
100.672
100.665
100.659
100.652
100.646
100.64
100.635
100.63
100.625
100.621
100.617
100.613
100.61
100.607
100.605
100.603
100.601
100.6
100.6
100.599
100.599
100.6
100.601
100.602
100.603
100.605
100.607
100.609
100.612
100.615
100.618
100.621
100.624
100.628
100.632
100.635
100.639
100.643
100.646
100.65
100.654
100.657
100.661
100.664
100.667
100.671
100.674
100.676
100.679
100.681
100.683
100.685
100.687
100.689
100.69
100.691
100.691
100.692
100.692
101.927
101.926
101.925
101.923
101.92
101.916
101.912
101.906
101.899
101.89
101.88
101.868
101.854
101.839
101.821
101.801
101.779
101.755
101.729
101.702
101.672
101.642
101.611
101.579
101.547
101.514
101.482
101.45
101.419
101.388
101.359
101.331
101.304
101.279
101.256
101.234
101.214
101.197
101.181
101.169
101.158
101.151
101.146
101.145
101.146
101.15
101.157
101.167
101.18
101.194
101.211
101.229
101.249
101.269
101.291
101.312
101.334
101.356
101.377
101.397
101.417
101.435
101.452
101.468
101.482
101.495
101.506
101.514
101.521
101.525
101.527
101.527
101.525
101.52
101.513
101.505
101.494
101.483
101.47
101.455
101.44
101.425
101.409
101.393
101.377
101.36
101.345
101.329
101.314
101.299
101.284
101.27
101.257
101.244
101.231
101.219
101.207
101.196
101.185
101.175
101.165
101.155
101.146
101.138
101.129
101.121
101.114
101.106
101.099
101.092
101.085
101.078
101.071
101.064
101.057
101.05
101.043
101.035
101.027
101.019
101.011
101.002
100.993
100.984
100.975
100.966
100.957
100.948
100.939
100.93
100.922
100.914
100.907
100.9
100.894
100.888
100.883
100.879
100.876
100.874
100.872
100.871
100.871
100.872
100.873
100.875
100.877
100.88
100.883
100.887
100.89
100.893
100.897
100.9
100.903
100.906
100.908
100.91
100.912
100.913
100.913
100.913
100.912
100.911
100.909
100.906
100.903
100.899
100.895
100.89
100.885
100.879
100.873
100.867
100.86
100.853
100.846
100.839
100.831
100.823
100.815
100.807
100.798
100.79
100.782
100.773
100.765
100.756
100.748
100.739
100.731
100.723
100.715
100.707
100.699
100.691
100.684
100.676
100.669
100.663
100.656
100.65
100.644
100.639
100.634
100.629
100.625
100.621
100.617
100.614
100.611
100.609
100.607
100.605
100.604
100.603
100.603
100.603
100.603
100.604
100.605
100.606
100.608
100.61
100.612
100.614
100.617
100.62
100.623
100.626
100.629
100.633
100.636
100.64
100.643
100.647
100.65
100.654
100.657
100.66
100.664
100.667
100.67
100.673
100.675
100.678
100.68
100.682
100.684
100.685
100.687
100.688
100.689
100.69
100.69
100.69
101.923
101.922
101.921
101.918
101.915
101.911
101.905
101.899
101.891
101.881
101.87
101.857
101.842
101.825
101.806
101.785
101.762
101.738
101.712
101.684
101.655
101.626
101.596
101.565
101.534
101.504
101.474
101.445
101.416
101.389
101.362
101.337
101.313
101.291
101.27
101.25
101.233
101.217
101.203
101.19
101.18
101.173
101.167
101.164
101.163
101.165
101.17
101.176
101.185
101.196
101.208
101.222
101.238
101.254
101.272
101.29
101.308
101.327
101.346
101.364
101.382
101.399
101.416
101.432
101.446
101.46
101.472
101.482
101.491
101.498
101.502
101.505
101.505
101.503
101.499
101.492
101.484
101.475
101.463
101.451
101.437
101.423
101.408
101.392
101.377
101.361
101.346
101.331
101.316
101.301
101.287
101.273
101.26
101.247
101.234
101.222
101.211
101.199
101.189
101.178
101.168
101.159
101.15
101.141
101.133
101.125
101.117
101.11
101.103
101.096
101.089
101.082
101.075
101.068
101.061
101.054
101.047
101.04
101.032
101.024
101.016
101.008
100.999
100.991
100.982
100.973
100.965
100.956
100.948
100.939
100.932
100.924
100.917
100.91
100.905
100.899
100.895
100.891
100.888
100.885
100.884
100.883
100.883
100.883
100.884
100.886
100.888
100.89
100.893
100.896
100.899
100.902
100.905
100.908
100.911
100.914
100.916
100.918
100.919
100.92
100.92
100.92
100.919
100.917
100.915
100.913
100.91
100.906
100.902
100.897
100.892
100.886
100.88
100.873
100.867
100.86
100.852
100.844
100.837
100.829
100.82
100.812
100.804
100.795
100.787
100.778
100.769
100.761
100.752
100.744
100.735
100.727
100.719
100.711
100.703
100.695
100.688
100.681
100.674
100.667
100.661
100.655
100.649
100.643
100.638
100.633
100.629
100.625
100.622
100.618
100.616
100.613
100.611
100.61
100.608
100.608
100.607
100.607
100.607
100.608
100.609
100.61
100.612
100.613
100.615
100.618
100.62
100.623
100.625
100.628
100.631
100.634
100.638
100.641
100.644
100.647
100.651
100.654
100.657
100.66
100.663
100.666
100.669
100.672
100.674
100.676
100.679
100.681
100.682
100.684
100.685
100.686
100.687
100.688
100.688
100.688
101.919
101.918
101.916
101.913
101.909
101.904
101.897
101.89
101.881
101.87
101.857
101.843
101.827
101.809
101.789
101.767
101.744
101.719
101.693
101.666
101.638
101.609
101.58
101.551
101.522
101.494
101.467
101.44
101.414
101.39
101.366
101.344
101.323
101.303
101.285
101.267
101.252
101.237
101.224
101.213
101.203
101.195
101.188
101.184
101.181
101.181
101.182
101.185
101.19
101.197
101.205
101.215
101.227
101.239
101.253
101.267
101.282
101.298
101.314
101.33
101.346
101.363
101.379
101.395
101.41
101.424
101.438
101.45
101.46
101.469
101.476
101.481
101.484
101.485
101.483
101.479
101.473
101.466
101.456
101.445
101.433
101.42
101.406
101.392
101.377
101.362
101.347
101.332
101.318
101.303
101.289
101.276
101.263
101.25
101.238
101.226
101.214
101.203
101.193
101.182
101.173
101.163
101.154
101.146
101.137
101.129
101.122
101.114
101.107
101.1
101.093
101.086
101.079
101.073
101.066
101.059
101.052
101.044
101.037
101.029
101.022
101.014
101.006
100.998
100.989
100.981
100.973
100.965
100.957
100.949
100.942
100.934
100.928
100.922
100.916
100.911
100.906
100.903
100.9
100.897
100.895
100.894
100.894
100.894
100.895
100.896
100.898
100.9
100.903
100.905
100.908
100.911
100.914
100.917
100.919
100.922
100.924
100.925
100.926
100.927
100.927
100.927
100.926
100.924
100.922
100.919
100.916
100.912
100.908
100.903
100.898
100.892
100.886
100.879
100.873
100.865
100.858
100.85
100.842
100.834
100.826
100.817
100.809
100.8
100.791
100.783
100.774
100.765
100.757
100.748
100.74
100.731
100.723
100.715
100.707
100.7
100.692
100.685
100.678
100.672
100.665
100.659
100.654
100.648
100.643
100.639
100.634
100.63
100.627
100.624
100.621
100.619
100.617
100.615
100.614
100.613
100.612
100.612
100.612
100.613
100.613
100.614
100.616
100.617
100.619
100.621
100.623
100.625
100.628
100.631
100.633
100.636
100.639
100.642
100.645
100.648
100.651
100.654
100.657
100.66
100.663
100.665
100.668
100.67
100.673
100.675
100.677
100.679
100.68
100.682
100.683
100.684
100.685
100.685
100.686
100.686
101.913
101.911
101.909
101.905
101.901
101.895
101.888
101.879
101.869
101.857
101.843
101.828
101.81
101.791
101.771
101.748
101.725
101.7
101.674
101.647
101.62
101.592
101.565
101.538
101.511
101.485
101.46
101.436
101.413
101.391
101.371
101.351
101.333
101.316
101.3
101.285
101.271
101.258
101.246
101.235
101.225
101.217
101.21
101.204
101.199
101.196
101.194
101.194
101.195
101.198
101.203
101.208
101.215
101.224
101.233
101.244
101.255
101.268
101.281
101.296
101.311
101.326
101.342
101.357
101.373
101.388
101.403
101.417
101.429
101.44
101.45
101.457
101.463
101.466
101.467
101.465
101.462
101.456
101.449
101.44
101.429
101.417
101.405
101.391
101.377