# vtk DataFile Version 2.0
HPC Tutorials: Michael Bader, Kaveh Rahnema, Oliver Meister
ASCII
DATASET RECTILINEAR_GRID
DIMENSIONS 257 257 1
X_COORDINATES 257 float
0
0.005
0.01
0.015
0.02
0.025
0.03
0.035
0.04
0.045
0.05
0.055
0.06
0.065
0.07
0.075
0.08
0.085
0.09
0.095
0.1
0.105
0.11
0.115
0.12
0.125
0.13
0.135
0.14
0.145
0.15
0.155
0.16
0.165
0.17
0.175
0.18
0.185
0.19
0.195
0.2
0.205
0.21
0.215
0.22
0.225
0.23
0.235
0.24
0.245
0.25
0.255
0.26
0.265
0.27
0.275
0.28
0.285
0.29
0.295
0.3
0.305
0.31
0.315
0.32
0.325
0.33
0.335
0.34
0.345
0.35
0.355
0.36
0.365
0.37
0.375
0.38
0.385
0.39
0.395
0.4
0.405
0.41
0.415
0.42
0.425
0.43
0.435
0.44
0.445
0.45
0.455
0.46
0.465
0.47
0.475
0.48
0.485
0.49
0.495
0.5
0.505
0.51
0.515
0.52
0.525
0.53
0.535
0.54
0.545
0.55
0.555
0.56
0.565
0.57
0.575
0.58
0.585
0.59
0.595
0.6
0.605
0.61
0.615
0.62
0.625
0.63
0.635
0.64
0.645
0.65
0.655
0.66
0.665
0.67
0.675
0.68
0.685
0.69
0.695
0.7
0.705
0.71
0.715
0.72
0.725
0.73
0.735
0.74
0.745
0.75
0.755
0.76
0.765
0.77
0.775
0.78
0.785
0.79
0.795
0.8
0.805
0.81
0.815
0.82
0.825
0.83
0.835
0.84
0.845
0.85
0.855
0.86
0.865
0.87
0.875
0.88
0.885
0.89
0.895
0.9
0.905
0.91
0.915
0.92
0.925
0.93
0.935
0.94
0.945
0.95
0.955
0.96
0.965
0.97
0.975
0.98
0.985
0.99
0.995
1
1.005
1.01
1.015
1.02
1.025
1.03
1.035
1.04
1.045
1.05
1.055
1.06
1.065
1.07
1.075
1.08
1.085
1.09
1.095
1.1
1.105
1.11
1.115
1.12
1.125
1.13
1.135
1.14
1.145
1.15
1.155
1.16
1.165
1.17
1.175
1.18
1.185
1.19
1.195
1.2
1.205
1.21
1.215
1.22
1.225
1.23
1.235
1.24
1.245
1.25
1.255
1.26
1.265
1.27
1.275
1.28
Y_COORDINATES 257 float
0
0.005
0.01
0.015
0.02
0.025
0.03
0.035
0.04
0.045
0.05
0.055
0.06
0.065
0.07
0.075
0.08
0.085
0.09
0.095
0.1
0.105
0.11
0.115
0.12
0.125
0.13
0.135
0.14
0.145
0.15
0.155
0.16
0.165
0.17
0.175
0.18
0.185
0.19
0.195
0.2
0.205
0.21
0.215
0.22
0.225
0.23
0.235
0.24
0.245
0.25
0.255
0.26
0.265
0.27
0.275
0.28
0.285
0.29
0.295
0.3
0.305
0.31
0.315
0.32
0.325
0.33
0.335
0.34
0.345
0.35
0.355
0.36
0.365
0.37
0.375
0.38
0.385
0.39
0.395
0.4
0.405
0.41
0.415
0.42
0.425
0.43
0.435
0.44
0.445
0.45
0.455
0.46
0.465
0.47
0.475
0.48
0.485
0.49
0.495
0.5
0.505
0.51
0.515
0.52
0.525
0.53
0.535
0.54
0.545
0.55
0.555
0.56
0.565
0.57
0.575
0.58
0.585
0.59
0.595
0.6
0.605
0.61
0.615
0.62
0.625
0.63
0.635
0.64
0.645
0.65
0.655
0.66
0.665
0.67
0.675
0.68
0.685
0.69
0.695
0.7
0.705
0.71
0.715
0.72
0.725
0.73
0.735
0.74
0.745
0.75
0.755
0.76
0.765
0.77
0.775
0.78
0.785
0.79
0.795
0.8
0.805
0.81
0.815
0.82
0.825
0.83
0.835
0.84
0.845
0.85
0.855
0.86
0.865
0.87
0.875
0.88
0.885
0.89
0.895
0.9
0.905
0.91
0.915
0.92
0.925
0.93
0.935
0.94
0.945
0.95
0.955
0.96
0.965
0.97
0.975
0.98
0.985
0.99
0.995
1
1.005
1.01
1.015
1.02
1.025
1.03
1.035
1.04
1.045
1.05
1.055
1.06
1.065
1.07
1.075
1.08
1.085
1.09
1.095
1.1
1.105
1.11
1.115
1.12
1.125
1.13
1.135
1.14
1.145
1.15
1.155
1.16
1.165
1.17
1.175
1.18
1.185
1.19
1.195
1.2
1.205
1.21
1.215
1.22
1.225
1.23
1.235
1.24
1.245
1.25
1.255
1.26
1.265
1.27
1.275
1.28
Z_COORDINATES 1 float
0
CELL_DATA 65536
SCALARS H float 1
LOOKUP_TABLE default
100.837
100.835
100.833
100.829
100.823
100.817
100.81
100.801
100.792
100.781
100.77
100.757
100.744
100.731
100.717
100.702
100.687
100.672
100.657
100.643
100.628
100.614
100.601
100.589
100.578
100.567
100.558
100.55
100.543
100.538
100.534
100.531
100.529
100.529
100.53
100.532
100.535
100.539
100.543
100.549
100.555
100.561
100.568
100.575
100.582
100.59
100.597
100.604
100.611
100.617
100.623
100.629
100.634
100.639
100.643
100.647
100.651
100.654
100.656
100.659
100.661
100.662
100.664
100.665
100.665
100.666
100.666
100.666
100.667
100.667
100.667
100.666
100.666
100.666
100.666
100.666
100.667
100.667
100.667
100.668
100.669
100.67
100.671
100.673
100.675
100.677
100.679
100.681
100.684
100.686
100.689
100.693
100.696
100.699
100.703
100.706
100.71
100.713
100.716
100.72
100.723
100.726
100.729
100.732
100.734
100.736
100.737
100.738
100.739
100.738
100.738
100.736
100.734
100.731
100.727
100.722
100.716
100.71
100.703
100.695
100.687
100.678
100.67
100.661
100.652
100.644
100.637
100.63
100.625
100.622
100.62
100.62
100.622
100.627
100.634
100.643
100.656
100.67
100.688
100.707
100.729
100.753
100.779
100.806
100.834
100.862
100.892
100.921
100.949
100.977
101.004
101.029
101.052
101.073
101.092
101.107
101.12
101.13
101.137
101.141
101.141
101.139
101.134
101.126
101.116
101.104
101.09
101.074
101.058
101.04
101.021
101.003
100.984
100.965
100.946
100.929
100.912
100.895
100.88
100.866
100.853
100.842
100.832
100.823
100.815
100.809
100.804
100.8
100.797
100.796
100.795
100.795
100.796
100.798
100.8
100.803
100.806
100.81
100.813
100.817
100.821
100.824
100.828
100.831
100.834
100.836
100.839
100.84
100.842
100.843
100.843
100.844
100.843
100.843
100.842
100.841
100.839
100.838
100.836
100.834
100.832
100.831
100.829
100.827
100.825
100.824
100.823
100.821
100.82
100.819
100.819
100.818
100.818
100.818
100.817
100.818
100.818
100.818
100.818
100.819
100.819
100.82
100.82
100.821
100.821
100.822
100.822
100.823
100.823
100.824
100.824
100.824
100.825
100.825
100.825
100.825
100.835
100.833
100.831
100.827
100.822
100.815
100.808
100.799
100.79
100.779
100.768
100.756
100.743
100.729
100.715
100.701
100.686
100.671
100.656
100.642
100.628
100.614
100.601
100.589
100.577
100.567
100.558
100.55
100.543
100.538
100.533
100.531
100.529
100.529
100.53
100.532
100.535
100.538
100.543
100.549
100.555
100.561
100.568
100.575
100.583
100.59
100.597
100.604
100.611
100.617
100.624
100.629
100.635
100.64
100.644
100.648
100.652
100.655
100.658
100.66
100.662
100.664
100.665
100.666
100.667
100.667
100.668
100.668
100.668
100.668
100.668
100.668
100.668
100.668
100.668
100.668
100.668
100.669
100.669
100.67
100.671
100.672
100.673
100.675
100.676
100.678
100.68
100.683
100.685
100.688
100.691
100.694
100.697
100.7
100.703
100.707
100.71
100.714
100.717
100.72
100.723
100.726
100.729
100.731
100.734
100.735
100.737
100.738
100.738
100.738
100.737
100.735
100.733
100.73
100.726
100.721
100.715
100.709
100.702
100.694
100.686
100.677
100.669
100.66
100.651
100.643
100.636
100.63
100.625
100.622
100.62
100.62
100.622
100.627
100.634
100.644
100.656
100.671
100.688
100.708
100.73
100.754
100.779
100.806
100.834
100.862
100.891
100.92
100.949
100.976
101.003
101.028
101.051
101.072
101.09
101.106
101.118
101.128
101.135
101.139
101.14
101.138
101.133
101.125
101.116
101.104
101.09
101.075
101.058
101.041
101.023
101.004
100.986
100.967
100.949
100.931
100.915
100.899
100.884
100.87
100.857
100.846
100.836
100.827
100.819
100.813
100.808
100.804
100.801
100.799
100.798
100.798
100.798
100.8
100.801
100.804
100.806
100.809
100.812
100.815
100.818
100.821
100.824
100.826
100.828
100.83
100.831
100.833
100.833
100.834
100.833
100.833
100.832
100.831
100.83
100.828
100.827
100.825
100.823
100.821
100.819
100.817
100.815
100.814
100.812
100.811
100.81
100.809
100.808
100.808
100.807
100.807
100.807
100.807
100.808
100.808
100.809
100.81
100.811
100.812
100.813
100.814
100.815
100.816
100.816
100.817
100.818
100.819
100.82
100.82
100.821
100.822
100.822
100.822
100.822
100.822
100.832
100.831
100.828
100.824
100.819
100.813
100.805
100.797
100.787
100.777
100.766
100.754
100.741
100.727
100.713
100.699
100.684
100.67
100.655
100.641
100.627
100.613
100.6
100.588
100.577
100.566
100.557
100.549
100.543
100.537
100.533
100.53
100.529
100.528
100.529
100.531
100.534
100.538
100.543
100.549
100.555
100.561
100.568
100.575
100.583
100.59
100.597
100.605
100.611
100.618
100.624
100.63
100.636
100.641
100.645
100.65
100.653
100.657
100.66
100.662
100.664
100.666
100.667
100.668
100.669
100.67
100.67
100.671
100.671
100.671
100.671
100.671
100.671
100.671
100.671
100.671
100.671
100.672
100.672
100.673
100.674
100.675
100.676
100.677
100.679
100.681
100.683
100.685
100.687
100.69
100.693
100.696
100.699
100.702
100.705
100.708
100.711
100.714
100.718
100.721
100.724
100.727
100.729
100.731
100.733
100.735
100.736
100.737
100.737
100.737
100.736
100.734
100.731
100.728
100.724
100.719
100.713
100.707
100.7
100.692
100.684
100.675
100.667
100.658
100.65
100.642
100.635
100.629
100.625
100.622
100.62
100.621
100.623
100.628
100.636
100.645
100.658
100.673
100.69
100.709
100.731
100.754
100.78
100.806
100.834
100.862
100.891
100.919
100.948
100.975
101.001
101.026
101.048
101.069
101.087
101.103
101.116
101.126
101.133
101.137
101.138
101.136
101.131
101.124
101.115
101.103
101.09
101.075
101.059
101.043
101.025
101.007
100.989
100.971
100.954
100.936
100.92
100.905
100.89
100.876
100.864
100.853
100.843
100.834
100.826
100.82
100.814
100.81
100.807
100.804
100.803
100.802
100.802
100.802
100.803
100.804
100.806
100.807
100.809
100.811
100.813
100.815
100.816
100.817
100.818
100.819
100.819
100.819
100.819
100.818
100.818
100.816
100.815
100.813
100.811
100.809
100.807
100.805
100.803
100.801
100.799
100.798
100.796
100.795
100.794
100.793
100.792
100.792
100.792
100.792
100.792
100.793
100.794
100.795
100.796
100.798
100.799
100.801
100.802
100.804
100.806
100.808
100.81
100.811
100.813
100.814
100.816
100.817
100.819
100.82
100.821
100.821
100.822
100.823
100.823
100.823
100.828
100.826
100.824
100.82
100.815
100.809
100.801
100.793
100.784
100.773
100.762
100.75
100.738
100.724
100.711
100.697
100.682
100.668
100.653
100.639
100.625
100.612
100.599
100.587
100.576
100.565
100.556
100.549
100.542
100.537
100.533
100.53
100.528
100.528
100.529
100.531
100.534
100.538
100.543
100.549
100.555
100.561
100.568
100.576
100.583
100.59
100.598
100.605
100.612
100.619
100.625
100.632
100.637
100.643
100.647
100.652
100.656
100.659
100.662
100.665
100.667
100.669
100.671
100.672
100.673
100.674
100.674
100.674
100.675
100.675
100.675
100.675
100.675
100.675
100.675
100.675
100.675
100.676
100.676
100.677
100.678
100.679
100.68
100.681
100.683
100.684
100.686
100.688
100.691
100.693
100.696
100.698
100.701
100.704
100.707
100.71
100.713
100.716
100.719
100.722
100.724
100.727
100.729
100.731
100.733
100.735
100.736
100.736
100.736
100.735
100.734
100.732
100.729
100.725
100.721
100.716
100.71
100.704
100.697
100.689
100.681
100.673
100.664
100.656
100.648
100.641
100.634
100.629
100.624
100.622
100.621
100.621
100.624
100.63
100.637
100.647
100.659
100.674
100.691
100.711
100.732
100.756
100.78
100.807
100.834
100.862
100.89
100.918
100.946
100.973
100.998
101.023
101.045
101.065
101.084
101.099
101.112
101.122
101.129
101.133
101.135
101.133
101.129
101.123
101.114
101.103
101.091
101.077
101.062
101.046
101.029
101.012
100.994
100.977
100.96
100.944
100.928
100.913
100.899
100.886
100.873
100.862
100.852
100.843
100.835
100.829
100.823
100.818
100.814
100.81
100.808
100.806
100.805
100.804
100.804
100.803
100.804
100.804
100.804
100.804
100.805
100.805
100.805
100.804
100.804
100.803
100.802
100.801
100.799
100.797
100.795
100.793
100.791
100.789
100.786
100.784
100.781
100.779
100.777
100.775
100.773
100.772
100.771
100.77
100.769
100.769
100.769
100.77
100.771
100.772
100.773
100.775
100.777
100.779
100.782
100.784
100.787
100.79
100.793
100.795
100.798
100.801
100.804
100.807
100.809
100.812
100.814
100.816
100.818
100.82
100.821
100.823
100.824
100.824
100.825
100.825
100.823
100.821
100.818
100.814
100.809
100.803
100.796
100.788
100.779
100.769
100.758
100.746
100.734
100.721
100.707
100.693
100.679
100.665
100.651
100.637
100.623
100.61
100.597
100.585
100.574
100.564
100.556
100.548
100.541
100.536
100.532
100.529
100.528
100.528
100.529
100.531
100.534
100.538
100.543
100.548
100.555
100.561
100.568
100.576
100.583
100.591
100.599
100.606
100.613
100.62
100.627
100.633
100.639
100.645
100.65
100.655
100.659
100.663
100.666
100.669
100.671
100.673
100.675
100.676
100.677
100.678
100.679
100.679
100.68
100.68
100.68
100.68
100.68
100.68
100.68
100.68
100.681
100.681
100.682
100.682
100.683
100.684
100.685
100.686
100.688
100.689
100.691
100.693
100.695
100.697
100.699
100.702
100.704
100.707
100.709
100.712
100.715
100.718
100.72
100.723
100.725
100.728
100.73
100.731
100.733
100.734
100.735
100.735
100.734
100.733
100.732
100.729
100.726
100.722
100.718
100.712
100.706
100.7
100.693
100.685
100.677
100.669
100.661
100.653
100.646
100.639
100.633
100.628
100.624
100.622
100.621
100.622
100.626
100.631
100.639
100.649
100.662
100.676
100.693
100.713
100.734
100.757
100.781
100.807
100.833
100.861
100.888
100.916
100.943
100.969
100.995
101.019
101.041
101.061
101.079
101.094
101.107
101.117
101.124
101.129
101.131
101.13
101.127
101.121
101.113
101.104
101.092
101.079
101.065
101.05
101.034
101.018
101.002
100.986
100.969
100.954
100.938
100.924
100.91
100.897
100.885
100.874
100.864
100.854
100.846
100.839
100.832
100.826
100.821
100.817
100.813
100.81
100.807
100.805
100.802
100.801
100.799
100.797
100.796
100.794
100.792
100.791
100.789
100.787
100.784
100.782
100.78
100.777
100.774
100.771
100.768
100.765
100.762
100.759
100.756
100.753
100.751
100.749
100.747
100.745
100.744
100.743
100.742
100.742
100.742
100.743
100.744
100.746
100.748
100.75
100.753
100.756
100.759
100.763
100.767
100.771
100.775
100.779
100.783
100.788
100.792
100.796
100.8
100.804
100.808
100.811
100.815
100.818
100.82
100.823
100.825
100.826
100.828
100.829
100.829
100.83
100.816
100.814
100.812
100.808
100.803
100.797
100.79
100.782
100.773
100.763
100.753
100.741
100.729
100.716
100.703
100.689
100.675
100.662
100.648
100.634
100.621
100.608
100.595
100.584
100.573
100.563
100.554
100.547
100.54
100.535
100.531
100.529
100.527
100.527
100.528
100.53
100.534
100.538
100.543
100.548
100.555
100.562
100.569
100.576
100.584
100.592
100.599
100.607
100.615
100.622
100.629
100.635
100.642
100.648
100.653
100.658
100.662
100.666
100.67
100.673
100.676
100.678
100.68
100.682
100.683
100.684
100.684
100.685
100.685
100.686
100.686
100.686
100.686
100.686
100.687
100.687
100.687
100.688
100.688
100.689
100.689
100.69
100.691
100.692
100.694
100.695
100.696
100.698
100.7
100.702
100.704
100.706
100.708
100.71
100.713
100.715
100.718
100.72
100.722
100.724
100.727
100.728
100.73
100.732
100.733
100.733
100.733
100.733
100.732
100.731
100.729
100.726
100.723
100.718
100.714
100.708
100.702
100.695
100.688
100.681
100.673
100.665
100.657
100.65
100.643
100.636
100.631
100.626
100.623
100.621
100.621
100.623
100.627
100.633
100.641
100.651
100.664
100.678
100.695
100.714
100.735
100.757
100.781
100.807
100.833
100.859
100.886
100.913
100.94
100.965
100.99
101.014
101.035
101.055
101.073
101.088
101.101
101.112
101.119
101.125
101.127
101.127
101.125
101.12
101.114
101.105
101.095
101.083
101.07
101.056
101.042
101.027
101.011
100.996
100.981
100.966
100.951
100.937
100.923
100.91
100.898
100.887
100.876
100.866
100.857
100.849
100.841
100.834
100.828
100.822
100.816
100.811
100.807
100.802
100.798
100.794
100.79
100.787
100.783
100.779
100.776
100.772
100.768
100.764
100.76
100.757
100.753
100.749
100.744
100.741
100.737
100.733
100.729
100.726
100.723
100.72
100.718
100.715
100.714
100.713
100.712
100.712
100.712
100.713
100.714
100.716
100.719
100.722
100.725
100.729
100.733
100.738
100.743
100.748
100.753
100.759
100.765
100.77
100.776
100.782
100.788
100.793
100.798
100.804
100.809
100.813
100.817
100.821
100.825
100.828
100.831
100.833
100.835
100.836
100.837
100.837
100.808
100.806
100.804
100.8
100.795
100.79
100.783
100.775
100.766
100.757
100.746
100.735
100.723
100.711
100.698
100.685
100.671
100.658
100.644
100.631
100.618
100.605
100.593
100.582
100.571
100.562
100.553
100.546
100.539
100.534
100.531
100.528
100.527
100.527
100.528
100.53
100.533
100.538
100.543
100.548
100.555
100.562
100.569
100.577
100.585
100.593
100.601
100.608
100.616
100.624
100.631
100.638
100.645
100.651
100.657
100.662
100.667
100.671
100.675
100.678
100.681
100.684
100.686
100.688
100.689
100.69
100.691
100.692
100.692
100.693
100.693
100.693
100.694
100.694
100.694
100.694
100.695
100.695
100.696
100.696
100.697
100.698
100.698
100.699
100.7
100.702
100.703
100.704
100.706
100.707
100.709
100.711
100.713
100.715
100.717
100.719
100.721
100.723
100.725
100.726
100.728
100.729
100.731
100.732
100.732
100.732
100.732
100.731
100.73
100.728
100.725
100.722
100.718
100.714
100.709
100.703
100.697
100.69
100.683
100.676
100.668
100.661
100.653
100.646
100.64
100.634
100.629
100.625
100.622
100.621
100.622
100.624
100.628
100.634
100.643
100.653
100.666
100.68
100.697
100.716
100.736
100.758
100.781
100.806
100.831
100.857
100.883
100.909
100.935
100.96
100.985
101.008
101.029
101.049
101.066
101.082
101.095
101.106
101.114
101.12
101.124
101.125
101.123
101.12
101.115
101.107
101.098
101.088
101.077
101.064
101.051
101.037
101.022
101.008
100.993
100.979
100.965
100.951
100.937
100.924
100.911
100.899
100.888
100.877
100.867
100.857
100.848
100.839
100.831
100.823
100.816
100.809
100.802
100.796
100.789
100.783
100.777
100.771
100.766
100.76
100.754
100.749
100.743
100.738
100.732
100.727
100.722
100.717
100.712
100.707
100.703
100.699
100.695
100.691
100.688
100.686
100.684
100.682
100.681
100.681
100.681
100.682
100.683
100.685
100.688
100.691
100.695
100.699
100.704
100.71
100.716
100.722
100.728
100.735
100.742
100.749
100.757
100.764
100.771
100.779
100.786
100.793
100.8
100.806
100.812
100.818
100.823
100.828
100.832
100.836
100.84
100.842
100.845
100.846
100.847
100.848
100.799
100.797
100.795
100.791
100.787
100.781
100.775
100.767
100.758
100.749
100.739
100.728
100.717
100.705
100.692
100.679
100.666
100.653
100.64
100.627
100.614
100.602
100.591
100.58
100.569
100.56
100.552
100.544
100.538
100.534
100.53
100.527
100.526
100.526
100.528
100.53
100.533
100.538
100.543
100.549
100.555
100.562
100.57
100.577
100.586
100.594
100.602
100.61
100.618
100.626
100.634
100.641
100.648
100.654
100.661
100.666
100.671
100.676
100.68
100.684
100.687
100.69
100.692
100.694
100.696
100.697
100.699
100.699
100.7
100.701
100.701
100.702
100.702
100.702
100.702
100.703
100.703
100.704
100.704
100.705
100.705
100.706
100.706
100.707
100.708
100.709
100.71
100.711
100.712
100.714
100.715
100.717
100.718
100.72
100.721
100.723
100.724
100.726
100.727
100.729
100.73
100.731
100.731
100.732
100.731
100.731
100.73
100.729
100.727
100.724
100.721
100.718
100.713
100.709
100.703
100.697
100.691
100.684
100.677
100.67
100.662
100.655
100.648
100.642
100.636
100.631
100.626
100.623
100.621
100.621
100.622
100.625
100.629
100.636
100.645
100.655
100.668
100.682
100.699
100.717
100.737
100.758
100.781
100.805
100.829
100.854
100.88
100.905
100.93
100.955
100.979
101.001
101.022
101.042
101.06
101.075
101.089
101.1
101.109
101.116
101.121
101.123
101.123
101.121
101.117
101.111
101.104
101.095
101.085
101.073
101.061
101.048
101.035
101.021
101.007
100.993
100.979
100.965
100.951
100.937
100.924
100.911
100.898
100.886
100.874
100.863
100.852
100.841
100.831
100.821
100.811
100.802
100.793
100.784
100.776
100.767
100.759
100.751
100.743
100.736
100.728
100.721
100.714
100.707
100.701
100.695
100.689
100.683
100.677
100.672
100.668
100.664
100.66
100.657
100.654
100.652
100.651
100.65
100.65
100.651
100.652
100.654
100.657
100.66
100.664
100.669
100.675
100.681
100.687
100.694
100.702
100.709
100.718
100.726
100.735
100.744
100.752
100.761
100.77
100.779
100.787
100.796
100.803
100.811
100.818
100.825
100.831
100.837
100.842
100.847
100.851
100.854
100.856
100.858
100.86
100.86
100.789
100.787
100.785
100.782
100.777
100.772
100.765
100.758
100.75
100.741
100.731
100.72
100.709
100.698
100.686
100.673
100.661
100.648
100.635
100.623
100.611
100.599
100.588
100.577
100.567
100.558
100.55
100.543
100.537
100.533
100.529
100.527
100.526
100.526
100.527
100.53
100.533
100.538
100.543
100.549
100.556
100.563
100.57
100.578
100.587
100.595
100.604
100.612
100.62
100.629
100.637
100.644
100.652
100.659
100.665
100.671
100.677
100.682
100.686
100.69
100.694
100.697
100.7
100.702
100.704
100.705
100.707
100.708
100.709
100.71
100.71
100.711
100.711
100.711
100.712
100.712
100.713
100.713
100.713
100.714
100.714
100.715
100.715
100.716
100.717
100.717
100.718
100.719
100.72
100.721
100.722
100.723
100.724
100.725
100.726
100.727
100.728
100.729
100.73
100.731
100.731
100.732
100.732
100.731
100.731
100.73
100.728
100.726
100.723
100.72
100.717
100.713
100.708
100.703
100.697
100.691
100.684
100.677
100.67
100.663
100.656
100.649
100.643
100.637
100.632
100.627
100.624
100.621
100.62
100.62
100.622
100.625
100.63
100.637
100.646
100.657
100.669
100.684
100.7
100.718
100.737
100.758
100.78
100.803
100.827
100.851
100.876
100.901
100.925
100.949
100.972
100.994
101.015
101.035
101.053
101.069
101.083
101.095
101.105
101.113
101.119
101.122
101.123
101.123
101.12
101.116
101.11
101.103
101.094
101.084
101.073
101.061
101.048
101.035
101.021
101.006
100.992
100.977
100.963
100.948
100.933
100.919
100.905
100.891
100.877
100.864
100.85
100.838
100.825
100.813
100.801
100.789
100.778
100.767
100.756
100.746
100.736
100.726
100.717
100.708
100.699
100.69
100.682
100.675
100.667
100.661
100.654
100.648
100.643
100.638
100.634
100.63
100.627
100.624
100.623
100.622
100.621
100.622
100.623
100.625
100.627
100.631
100.635
100.64
100.646
100.652
100.659
100.666
100.675
100.683
100.692
100.701
100.711
100.721
100.731
100.741
100.752
100.762
100.772
100.782
100.791
100.801
100.81
100.818
100.826
100.834
100.841
100.847
100.853
100.858
100.863
100.866
100.869
100.871
100.873
100.873
100.778
100.776
100.774
100.771
100.766
100.761
100.755
100.748
100.74
100.731
100.722
100.712
100.701
100.69
100.679
100.667
100.655
100.643
100.63
100.618
100.607
100.595
100.585
100.574
100.565
100.556
100.549
100.542
100.536
100.532
100.529
100.527
100.526
100.526
100.527
100.53
100.533
100.538
100.543
100.549
100.556
100.564
100.571
100.58
100.588
100.597
100.606
100.614
100.623
100.632
100.64
100.648
100.656
100.663
100.67
100.676
100.682
100.688
100.693
100.697
100.701
100.704
100.707
100.71
100.712
100.714
100.716
100.717
100.718
100.719
100.72
100.721
100.721
100.722
100.722
100.722
100.723
100.723
100.723
100.724
100.724
100.724
100.725
100.725
100.726
100.726
100.727
100.727
100.728
100.729
100.729
100.73
100.731
100.731
100.732
100.732
100.733
100.733
100.733
100.734
100.733
100.733
100.732
100.731
100.73
100.728
100.726
100.723
100.72
100.716
100.712
100.707
100.702
100.696
100.69
100.684
100.677
100.67
100.663
100.656
100.65
100.643
100.637
100.632
100.627
100.623
100.62
100.619
100.618
100.619
100.622
100.626
100.631
100.639
100.648
100.658
100.671
100.685
100.701
100.719
100.737
100.758
100.779
100.801
100.824
100.848
100.872
100.896
100.92
100.943
100.966
100.988
101.009
101.029
101.047
101.063
101.078
101.091
101.102
101.111
101.118
101.123
101.125
101.126
101.125
101.122
101.118
101.112
101.104
101.095
101.084
101.073
101.06
101.047
101.033
101.018
101.003
100.987
100.971
100.955
100.939
100.923
100.906
100.89
100.874
100.859
100.843
100.828
100.813
100.799
100.784
100.771
100.757
100.744
100.732
100.72
100.708
100.697
100.687
100.676
100.667
100.658
100.649
100.641
100.634
100.627
100.621
100.615
100.61
100.606
100.602
100.6
100.597
100.596
100.595
100.596
100.597
100.598
100.601
100.604
100.608
100.613
100.619
100.625
100.633
100.64
100.649
100.658
100.667
100.677
100.688
100.698
100.709
100.72
100.731
100.743
100.754
100.765
100.776
100.787
100.798
100.808
100.818
100.827
100.836
100.844
100.851
100.858
100.864
100.87
100.874
100.878
100.881
100.884
100.885
100.886
100.766
100.764
100.762
100.759
100.755
100.75
100.744
100.737
100.729
100.721
100.712
100.703
100.692
100.682
100.671
100.66
100.648
100.636
100.625
100.613
100.602
100.591
100.581
100.571
100.562
100.554
100.547
100.541
100.535
100.531
100.528
100.526
100.526
100.526
100.528
100.53
100.534
100.538
100.544
100.55
100.557
100.565
100.573
100.581
100.59
100.599
100.608
100.617
100.626
100.635
100.644
100.652
100.66
100.668
100.675
100.682
100.688
100.694
100.699
100.704
100.708
100.712
100.716
100.719
100.721
100.723
100.725
100.727
100.728
100.729
100.73
100.731
100.732
100.732
100.733
100.733
100.734
100.734
100.734
100.734
100.735
100.735
100.735
100.735
100.736
100.736
100.736
100.736
100.737
100.737
100.737
100.737
100.737
100.738
100.738
100.738
100.738
100.737
100.737
100.736
100.735
100.734
100.733
100.731
100.729
100.726
100.723
100.719
100.715
100.711
100.706
100.701
100.695
100.689
100.683
100.676
100.669
100.662
100.656
100.649
100.643
100.637
100.631
100.626
100.622
100.619
100.617
100.616
100.617
100.618
100.621
100.626
100.632
100.64
100.649
100.66
100.673
100.687
100.702
100.719
100.738
100.757
100.778
100.8
100.822
100.845
100.868
100.892
100.915
100.938
100.961
100.982
101.003
101.023
101.042
101.059
101.074
101.088
101.1
101.11
101.118
101.124
101.129
101.131
101.131
101.129
101.126
101.121
101.114
101.105
101.095
101.083
101.071
101.057
101.042
101.026
101.01
100.993
100.975
100.957
100.939
100.921
100.902
100.884
100.866
100.848
100.83
100.812
100.795
100.779
100.763
100.747
100.732
100.718
100.704
100.69
100.678
100.666
100.655
100.644
100.634
100.625
100.617
100.609
100.602
100.596
100.59
100.585
100.581
100.578
100.576
100.574
100.573
100.573
100.574
100.576
100.578
100.581
100.585
100.59
100.596
100.602
100.609
100.617
100.626
100.635
100.644
100.655
100.665
100.676
100.688
100.699
100.711
100.723
100.735
100.747
100.759
100.771
100.783
100.794
100.805
100.816
100.826
100.835
100.844
100.853
100.861
100.868
100.874
100.88
100.884
100.888
100.892
100.894
100.895
100.896
100.752
100.751
100.749
100.746
100.742
100.737
100.732
100.725
100.718
100.71
100.702
100.693
100.683
100.673
100.663
100.652
100.641
100.63
100.619
100.608
100.598
100.587
100.578
100.568
100.56
100.552
100.545
100.539
100.534
100.53
100.528
100.526
100.526
100.526
100.528
100.531
100.535
100.539
100.545
100.551
100.558
100.566
100.574
100.583
100.592
100.601
100.611
100.62
100.63
100.639
100.648
100.657
100.665
100.673
100.681
100.688
100.695
100.701
100.707
100.712
100.716
100.721
100.724
100.728
100.731
100.733
100.735
100.737
100.739
100.74
100.741
100.742
100.743
100.744
100.744
100.745
100.745
100.745
100.746
100.746
100.746
100.746
100.746
100.746
100.746
100.746
100.746
100.746
100.746
100.746
100.745
100.745
100.745
100.744
100.744
100.743
100.743
100.742
100.74
100.739
100.737
100.735
100.733
100.73
100.727
100.724
100.72
100.716
100.711
100.706
100.7
100.694
100.688
100.681
100.675
100.668
100.661
100.654
100.647
100.641
100.635
100.63
100.625
100.621
100.617
100.615
100.614
100.614
100.615
100.617
100.621
100.626
100.633
100.641
100.651
100.662
100.674
100.688
100.704
100.721
100.738
100.758
100.778
100.799
100.821
100.843
100.866
100.888
100.911
100.934
100.957
100.978
100.999
101.019
101.038
101.056
101.072
101.087
101.1
101.111
101.12
101.127
101.133
101.136
101.137
101.136
101.133
101.128
101.122
101.113
101.103
101.091
101.077
101.063
101.047
101.029
101.011
100.993
100.973
100.953
100.933
100.912
100.891
100.871
100.85
100.83
100.811
100.791
100.772
100.754
100.736
100.72
100.703
100.688
100.673
100.66
100.647
100.635
100.623
100.613
100.603
100.595
100.587
100.58
100.574
100.568
100.564
100.561
100.558
100.556
100.555
100.555
100.556
100.557
100.559
100.563
100.567
100.571
100.577
100.583
100.59
100.598
100.606
100.615
100.625
100.635
100.646
100.657
100.668
100.68
100.692
100.704
100.716
100.729
100.741
100.754
100.766
100.778
100.79
100.801
100.812
100.823
100.833
100.842
100.852
100.86
100.868
100.875
100.881
100.886
100.891
100.895
100.898
100.901
100.902
100.903
100.739
100.737
100.735
100.732
100.729
100.724
100.719
100.713
100.706
100.699
100.691
100.682
100.673
100.664
100.654
100.644
100.633
100.623
100.613
100.603
100.593
100.583
100.574
100.565
100.557
100.55
100.543
100.538
100.533
100.53
100.528
100.526
100.526
100.527
100.529
100.532
100.536
100.54
100.546
100.553
100.56
100.568
100.577
100.585
100.595
100.604
100.614
100.624
100.633
100.643
100.652
100.662
100.67
100.679
100.687
100.694
100.701
100.708
100.714
100.72
100.725
100.729
100.733
100.737
100.74
100.743
100.746
100.748
100.75
100.751
100.753
100.754
100.755
100.756
100.756
100.757
100.757
100.757
100.757
100.757
100.757
100.757
100.757
100.757
100.757
100.756
100.756
100.756
100.755
100.755
100.754
100.753
100.752
100.751
100.75
100.749
100.748
100.746
100.744
100.742
100.739
100.736
100.733
100.73
100.726
100.721
100.717
100.711
100.706
100.7
100.694
100.687
100.68
100.674
100.666
100.659
100.652
100.646
100.639
100.633
100.628
100.623
100.618
100.615
100.612
100.611
100.61
100.611
100.613
100.616
100.621
100.627
100.634
100.643
100.653
100.664
100.677
100.691
100.706
100.722
100.74
100.759
100.778
100.799
100.82
100.842
100.864
100.887
100.91
100.932
100.954
100.976
100.997
101.018
101.037
101.055
101.072
101.087
101.101
101.113
101.123
101.131
101.137
101.14
101.142
101.142
101.139
101.134
101.127
101.118
101.107
101.094
101.079
101.063
101.046
101.027
101.007
100.986
100.964
100.942
100.92
100.897
100.875
100.852
100.83
100.808
100.787
100.766
100.746
100.727
100.708
100.69
100.674
100.658
100.643
100.63
100.617
100.605
100.594
100.585
100.576
100.568
100.562
100.556
100.551
100.547
100.544
100.542
100.541
100.541
100.542
100.543
100.545
100.548
100.552
100.557
100.562
100.569
100.575
100.583
100.591
100.6
100.609
100.619
100.629
100.64
100.651
100.663
100.675
100.687
100.699
100.711
100.724
100.736
100.749
100.761
100.773
100.785
100.796
100.807
100.818
100.828
100.838
100.847
100.856
100.864
100.872
100.878
100.884
100.89
100.894
100.898
100.901
100.903
100.904
100.905
100.724
100.723
100.721
100.718
100.715
100.71
100.706
100.7
100.694
100.687
100.679
100.671
100.663
100.654
100.645
100.635
100.626
100.616
100.606
100.597
100.587
100.578
100.57
100.562
100.554
100.548
100.542
100.537
100.533
100.53
100.527
100.526
100.526
100.527
100.53
100.533
100.537
100.542
100.548
100.555
100.562
100.57
100.579
100.588
100.598
100.608
100.618
100.628
100.638
100.648
100.657
100.667
100.676
100.685
100.693
100.701
100.708
100.715
100.722
100.728
100.733
100.738
100.743
100.747
100.75
100.754
100.757
100.759
100.761
100.763
100.765
100.766
100.767
100.768
100.768
100.769
100.769
100.769
100.77
100.77