# vtk DataFile Version 2.0
HPC Tutorials: Michael Bader, Kaveh Rahnema, Oliver Meister
ASCII
DATASET RECTILINEAR_GRID
DIMENSIONS 257 257 1
X_COORDINATES 257 float
0
0.005
0.01
0.015
0.02
0.025
0.03
0.035
0.04
0.045
0.05
0.055
0.06
0.065
0.07
0.075
0.08
0.085
0.09
0.095
0.1
0.105
0.11
0.115
0.12
0.125
0.13
0.135
0.14
0.145
0.15
0.155
0.16
0.165
0.17
0.175
0.18
0.185
0.19
0.195
0.2
0.205
0.21
0.215
0.22
0.225
0.23
0.235
0.24
0.245
0.25
0.255
0.26
0.265
0.27
0.275
0.28
0.285
0.29
0.295
0.3
0.305
0.31
0.315
0.32
0.325
0.33
0.335
0.34
0.345
0.35
0.355
0.36
0.365
0.37
0.375
0.38
0.385
0.39
0.395
0.4
0.405
0.41
0.415
0.42
0.425
0.43
0.435
0.44
0.445
0.45
0.455
0.46
0.465
0.47
0.475
0.48
0.485
0.49
0.495
0.5
0.505
0.51
0.515
0.52
0.525
0.53
0.535
0.54
0.545
0.55
0.555
0.56
0.565
0.57
0.575
0.58
0.585
0.59
0.595
0.6
0.605
0.61
0.615
0.62
0.625
0.63
0.635
0.64
0.645
0.65
0.655
0.66
0.665
0.67
0.675
0.68
0.685
0.69
0.695
0.7
0.705
0.71
0.715
0.72
0.725
0.73
0.735
0.74
0.745
0.75
0.755
0.76
0.765
0.77
0.775
0.78
0.785
0.79
0.795
0.8
0.805
0.81
0.815
0.82
0.825
0.83
0.835
0.84
0.845
0.85
0.855
0.86
0.865
0.87
0.875
0.88
0.885
0.89
0.895
0.9
0.905
0.91
0.915
0.92
0.925
0.93
0.935
0.94
0.945
0.95
0.955
0.96
0.965
0.97
0.975
0.98
0.985
0.99
0.995
1
1.005
1.01
1.015
1.02
1.025
1.03
1.035
1.04
1.045
1.05
1.055
1.06
1.065
1.07
1.075
1.08
1.085
1.09
1.095
1.1
1.105
1.11
1.115
1.12
1.125
1.13
1.135
1.14
1.145
1.15
1.155
1.16
1.165
1.17
1.175
1.18
1.185
1.19
1.195
1.2
1.205
1.21
1.215
1.22
1.225
1.23
1.235
1.24
1.245
1.25
1.255
1.26
1.265
1.27
1.275
1.28
Y_COORDINATES 257 float
0
0.005
0.01
0.015
0.02
0.025
0.03
0.035
0.04
0.045
0.05
0.055
0.06
0.065
0.07
0.075
0.08
0.085
0.09
0.095
0.1
0.105
0.11
0.115
0.12
0.125
0.13
0.135
0.14
0.145
0.15
0.155
0.16
0.165
0.17
0.175
0.18
0.185
0.19
0.195
0.2
0.205
0.21
0.215
0.22
0.225
0.23
0.235
0.24
0.245
0.25
0.255
0.26
0.265
0.27
0.275
0.28
0.285
0.29
0.295
0.3
0.305
0.31
0.315
0.32
0.325
0.33
0.335
0.34
0.345
0.35
0.355
0.36
0.365
0.37
0.375
0.38
0.385
0.39
0.395
0.4
0.405
0.41
0.415
0.42
0.425
0.43
0.435
0.44
0.445
0.45
0.455
0.46
0.465
0.47
0.475
0.48
0.485
0.49
0.495
0.5
0.505
0.51
0.515
0.52
0.525
0.53
0.535
0.54
0.545
0.55
0.555
0.56
0.565
0.57
0.575
0.58
0.585
0.59
0.595
0.6
0.605
0.61
0.615
0.62
0.625
0.63
0.635
0.64
0.645
0.65
0.655
0.66
0.665
0.67
0.675
0.68
0.685
0.69
0.695
0.7
0.705
0.71
0.715
0.72
0.725
0.73
0.735
0.74
0.745
0.75
0.755
0.76
0.765
0.77
0.775
0.78
0.785
0.79
0.795
0.8
0.805
0.81
0.815
0.82
0.825
0.83
0.835
0.84
0.845
0.85
0.855
0.86
0.865
0.87
0.875
0.88
0.885
0.89
0.895
0.9
0.905
0.91
0.915
0.92
0.925
0.93
0.935
0.94
0.945
0.95
0.955
0.96
0.965
0.97
0.975
0.98
0.985
0.99
0.995
1
1.005
1.01
1.015
1.02
1.025
1.03
1.035
1.04
1.045
1.05
1.055
1.06
1.065
1.07
1.075
1.08
1.085
1.09
1.095
1.1
1.105
1.11
1.115
1.12
1.125
1.13
1.135
1.14
1.145
1.15
1.155
1.16
1.165
1.17
1.175
1.18
1.185
1.19
1.195
1.2
1.205
1.21
1.215
1.22
1.225
1.23
1.235
1.24
1.245
1.25
1.255
1.26
1.265
1.27
1.275
1.28
Z_COORDINATES 1 float
0
CELL_DATA 65536
SCALARS H float 1
LOOKUP_TABLE default
101.692
101.691
101.689
101.686
101.683
101.679
101.675
101.67
101.666
101.662
101.658
101.654
101.651
101.649
101.647
101.646
101.646
101.646
101.647
101.649
101.65
101.653
101.655
101.657
101.659
101.661
101.663
101.664
101.664
101.664
101.663
101.661
101.659
101.655
101.651
101.645
101.64
101.633
101.626
101.618
101.609
101.601
101.592
101.583
101.573
101.564
101.554
101.545
101.536
101.527
101.519
101.51
101.503
101.495
101.488
101.481
101.475
101.469
101.464
101.459
101.454
101.45
101.446
101.443
101.439
101.436
101.434
101.431
101.428
101.426
101.424
101.421
101.419
101.417
101.414
101.412
101.409
101.406
101.403
101.4
101.396
101.393
101.389
101.385
101.381
101.376
101.372
101.367
101.362
101.358
101.353
101.348
101.343
101.339
101.334
101.33
101.326
101.321
101.317
101.313
101.31
101.306
101.302
101.299
101.295
101.291
101.288
101.284
101.28
101.276
101.271
101.267
101.262
101.257
101.251
101.246
101.24
101.233
101.227
101.22
101.213
101.205
101.198
101.19
101.182
101.174
101.166
101.158
101.149
101.141
101.133
101.125
101.117
101.109
101.1
101.092
101.084
101.076
101.068
101.06
101.052
101.044
101.035
101.026
101.018
101.008
100.999
100.989
100.979
100.968
100.957
100.946
100.934
100.921
100.908
100.895
100.881
100.867
100.853
100.839
100.824
100.81
100.796
100.783
100.77
100.758
100.746
100.735
100.725
100.716
100.707
100.699
100.692
100.686
100.68
100.674
100.67
100.665
100.661
100.657
100.653
100.649
100.646
100.643
100.64
100.637
100.634
100.631
100.628
100.626
100.624
100.622
100.621
100.62
100.619
100.618
100.618
100.619
100.62
100.622
100.624
100.626
100.63
100.634
100.638
100.643
100.649
100.655
100.662
100.669
100.677
100.686
100.694
100.703
100.713
100.723
100.732
100.743
100.753
100.763
100.773
100.783
100.793
100.803
100.813
100.822
100.832
100.841
100.849
100.858
100.865
100.873
100.88
100.887
100.894
100.9
100.906
100.911
100.916
100.921
100.925
100.93
100.933
100.937
100.94
100.943
100.946
100.948
100.95
100.952
100.954
100.955
100.956
100.957
100.957
100.957
101.691
101.69
101.688
101.685
101.682
101.678
101.674
101.67
101.665
101.661
101.657
101.654
101.651
101.649
101.647
101.646
101.646
101.646
101.647
101.649
101.651
101.653
101.655
101.657
101.659
101.661
101.663
101.663
101.664
101.663
101.662
101.66
101.658
101.654
101.65
101.645
101.639
101.632
101.625
101.617
101.609
101.6
101.591
101.582
101.573
101.564
101.554
101.545
101.536
101.528
101.519
101.511
101.503
101.495
101.488
101.482
101.475
101.47
101.464
101.459
101.455
101.45
101.447
101.443
101.44
101.436
101.434
101.431
101.428
101.426
101.423
101.421
101.419
101.416
101.414
101.411
101.408
101.405
101.402
101.399
101.395
101.391
101.388
101.384
101.379
101.375
101.371
101.366
101.361
101.357
101.352
101.347
101.342
101.338
101.333
101.329
101.325
101.32
101.316
101.312
101.309
101.305
101.301
101.297
101.294
101.29
101.286
101.282
101.278
101.274
101.27
101.265
101.26
101.255
101.249
101.244
101.238
101.231
101.225
101.218
101.211
101.204
101.196
101.189
101.181
101.173
101.165
101.157
101.149
101.14
101.132
101.124
101.116
101.108
101.1
101.092
101.084
101.077
101.069
101.061
101.052
101.044
101.036
101.027
101.018
101.009
100.999
100.99
100.979
100.969
100.958
100.946
100.934
100.922
100.909
100.896
100.882
100.868
100.854
100.84
100.826
100.812
100.799
100.786
100.773
100.761
100.75
100.739
100.729
100.72
100.712
100.704
100.697
100.69
100.684
100.679
100.674
100.67
100.665
100.661
100.657
100.654
100.65
100.647
100.644
100.641
100.638
100.636
100.633
100.631
100.629
100.628
100.627
100.626
100.625
100.625
100.626
100.626
100.628
100.629
100.632
100.635
100.638
100.642
100.647
100.652
100.658
100.664
100.67
100.678
100.685
100.693
100.702
100.71
100.719
100.728
100.738
100.747
100.757
100.766
100.776
100.785
100.794
100.803
100.812
100.821
100.829
100.837
100.845
100.853
100.86
100.867
100.873
100.879
100.885
100.891
100.896
100.901
100.905
100.91
100.914
100.917
100.921
100.924
100.927
100.93
100.932
100.934
100.936
100.938
100.939
100.941
100.941
100.942
100.942
100.943
101.689
101.688
101.686
101.683
101.68
101.677
101.673
101.669
101.665
101.661
101.657
101.654
101.651
101.649
101.647
101.647
101.646
101.647
101.648
101.649
101.651
101.653
101.655
101.657
101.659
101.66
101.662
101.663
101.663
101.662
101.661
101.659
101.656
101.653
101.649
101.644
101.638
101.631
101.624
101.616
101.608
101.6
101.591
101.582
101.573
101.564
101.555
101.546
101.537
101.528
101.519
101.511
101.503
101.496
101.489
101.482
101.476
101.47
101.465
101.46
101.455
101.451
101.447
101.443
101.44
101.437
101.434
101.431
101.428
101.425
101.423
101.42
101.418
101.415
101.412
101.409
101.406
101.403
101.4
101.397
101.393
101.389
101.386
101.382
101.377
101.373
101.369
101.364
101.36
101.355
101.35
101.346
101.341
101.336
101.332
101.327
101.323
101.319
101.315
101.311
101.307
101.303
101.299
101.295
101.292
101.288
101.284
101.28
101.276
101.271
101.267
101.262
101.257
101.252
101.246
101.241
101.235
101.229
101.222
101.215
101.208
101.201
101.194
101.186
101.179
101.171
101.163
101.155
101.147
101.139
101.131
101.123
101.116
101.108
101.1
101.092
101.084
101.077
101.069
101.061
101.053
101.045
101.036
101.028
101.019
101.01
101
100.99
100.98
100.97
100.958
100.947
100.935
100.923
100.91
100.897
100.883
100.87
100.856
100.842
100.829
100.815
100.802
100.79
100.778
100.766
100.755
100.745
100.735
100.727
100.718
100.711
100.704
100.698
100.692
100.686
100.681
100.677
100.672
100.668
100.664
100.661
100.657
100.654
100.651
100.649
100.646
100.644
100.642
100.64
100.639
100.637
100.637
100.636
100.636
100.637
100.637
100.639
100.64
100.642
100.645
100.648
100.652
100.656
100.661
100.666
100.671
100.677
100.684
100.691
100.698
100.705
100.713
100.721
100.729
100.737
100.746
100.754
100.762
100.771
100.779
100.787
100.795
100.803
100.81
100.818
100.825
100.832
100.838
100.844
100.85
100.856
100.861
100.866
100.871
100.876
100.88
100.884
100.888
100.892
100.895
100.898
100.901
100.904
100.906
100.909
100.911
100.913
100.914
100.916
100.917
100.918
100.919
100.919
100.92
100.92
101.686
101.685
101.683
101.681
101.678
101.675
101.671
101.667
101.664
101.66
101.657
101.654
101.651
101.649
101.648
101.647
101.647
101.647
101.648
101.649
101.651
101.653
101.655
101.656
101.658
101.66
101.661
101.661
101.661
101.661
101.66
101.658
101.655
101.651
101.647
101.642
101.636
101.63
101.623
101.615
101.608
101.599
101.591
101.582
101.573
101.564
101.555
101.546
101.537
101.528
101.52
101.512
101.504
101.497
101.49
101.483
101.477
101.471
101.466
101.461
101.456
101.452
101.448
101.444
101.44
101.437
101.434
101.431
101.428
101.425
101.422
101.419
101.416
101.413
101.41
101.407
101.404
101.401
101.398
101.394
101.391
101.387
101.383
101.379
101.375
101.37
101.366
101.362
101.357
101.353
101.348
101.343
101.339
101.334
101.33
101.325
101.321
101.317
101.313
101.308
101.304
101.3
101.296
101.292
101.288
101.284
101.28
101.276
101.272
101.267
101.263
101.258
101.253
101.248
101.242
101.237
101.231
101.225
101.218
101.212
101.205
101.198
101.19
101.183
101.176
101.168
101.16
101.153
101.145
101.137
101.13
101.122
101.115
101.107
101.099
101.092
101.084
101.077
101.069
101.061
101.053
101.045
101.037
101.028
101.02
101.011
101.001
100.991
100.981
100.971
100.96
100.948
100.936
100.924
100.912
100.899
100.886
100.872
100.859
100.846
100.833
100.82
100.808
100.796
100.785
100.774
100.763
100.754
100.745
100.736
100.728
100.721
100.714
100.708
100.702
100.697
100.692
100.687
100.682
100.678
100.674
100.671
100.668
100.665
100.662
100.659
100.657
100.655
100.654
100.653
100.652
100.651
100.651
100.651
100.652
100.653
100.654
100.656
100.658
100.661
100.664
100.667
100.671
100.676
100.68
100.685
100.691
100.696
100.702
100.709
100.715
100.722
100.729
100.736
100.743
100.75
100.756
100.763
100.77
100.777
100.783
100.79
100.796
100.802
100.808
100.813
100.818
100.823
100.828
100.832
100.837
100.841
100.844
100.848
100.852
100.855
100.858
100.861
100.864
100.866
100.869
100.871
100.873
100.875
100.877
100.879
100.88
100.882
100.883
100.884
100.885
100.886
100.886
100.887
100.887
100.887
101.683
101.682
101.68
101.678
101.675
101.672
101.669
101.666
101.662
101.659
101.656
101.653
101.651
101.649
101.648
101.647
101.647
101.648
101.648
101.65
101.651
101.653
101.654
101.656
101.657
101.658
101.659
101.66
101.66
101.659
101.658
101.655
101.653
101.649
101.645
101.64
101.634
101.628
101.622
101.614
101.607
101.598
101.59
101.581
101.573
101.564
101.555
101.546
101.538
101.529
101.521
101.513
101.505
101.498
101.491
101.485
101.478
101.472
101.467
101.462
101.457
101.453
101.448
101.444
101.441
101.437
101.434
101.43
101.427
101.424
101.421
101.418
101.415
101.412
101.408
101.405
101.402
101.398
101.395
101.391
101.387
101.383
101.38
101.376
101.371
101.367
101.363
101.359
101.354
101.35
101.345
101.341
101.336
101.332
101.327
101.323
101.318
101.314
101.31
101.306
101.301
101.297
101.293
101.289
101.285
101.28
101.276
101.272
101.267
101.263
101.258
101.253
101.248
101.243
101.237
101.232
101.226
101.22
101.213
101.207
101.2
101.193
101.186
101.179
101.172
101.165
101.157
101.15
101.143
101.135
101.128
101.121
101.113
101.106
101.099
101.092
101.084
101.077
101.069
101.062
101.054
101.046
101.038
101.029
101.021
101.012
101.002
100.992
100.982
100.972
100.961
100.95
100.938
100.926
100.914
100.901
100.889
100.876
100.863
100.851
100.839
100.827
100.815
100.804
100.794
100.784
100.774
100.765
100.756
100.748
100.741
100.734
100.727
100.721
100.715
100.71
100.705
100.7
100.696
100.691
100.688
100.684
100.681
100.678
100.676
100.674
100.672
100.671
100.67
100.669
100.669
100.669
100.67
100.671
100.672
100.674
100.676
100.678
100.681
100.684
100.688
100.692
100.696
100.7
100.705
100.71
100.715
100.72
100.726
100.731
100.737
100.742
100.748
100.753
100.759
100.764
100.769
100.774
100.779
100.784
100.788
100.792
100.796
100.8
100.803
100.806
100.809
100.812
100.815
100.817
100.819
100.821
100.823
100.825
100.827
100.828
100.83
100.831
100.833
100.834
100.835
100.837
100.838
100.839
100.84
100.841
100.842
100.843
100.844
100.844
100.845
100.845
100.846
100.846
100.846
100.846
101.679
101.678
101.677
101.675
101.672
101.67
101.667
101.664
101.661
101.658
101.655
101.653
101.651
101.649
101.648
101.648
101.648
101.648
101.649
101.65
101.651
101.652
101.654
101.655
101.656
101.657
101.658
101.658
101.658
101.657
101.655
101.653
101.65
101.647
101.643
101.638
101.632
101.626
101.62
101.613
101.605
101.598
101.59
101.581
101.573
101.564
101.556
101.547
101.539
101.53
101.522
101.514
101.507
101.5
101.493
101.486
101.48
101.474
101.469
101.463
101.459
101.454
101.449
101.445
101.441
101.438
101.434
101.43
101.427
101.423
101.42
101.416
101.413
101.409
101.406
101.402
101.399
101.395
101.391
101.388
101.384
101.38
101.376
101.372
101.368
101.364
101.359
101.355
101.351
101.346
101.342
101.338
101.333
101.329
101.324
101.32
101.315
101.311
101.307
101.302
101.298
101.294
101.289
101.285
101.28
101.276
101.271
101.267
101.262
101.258
101.253
101.248
101.243
101.237
101.232
101.226
101.22
101.214
101.208
101.202
101.195
101.189
101.182
101.175
101.168
101.161
101.154
101.147
101.14
101.133
101.126
101.119
101.112
101.105
101.098
101.091
101.084
101.077
101.07
101.062
101.054
101.047
101.039
101.03
101.022
101.013
101.004
100.994
100.984
100.973
100.963
100.952
100.94
100.928
100.917
100.905
100.893
100.881
100.869
100.857
100.846
100.835
100.825
100.814
100.805
100.796
100.787
100.779
100.771
100.763
100.756
100.749
100.743
100.737
100.731
100.726
100.721
100.716
100.711
100.707
100.704
100.7
100.698
100.695
100.693
100.692
100.69
100.69
100.689
100.69
100.69
100.691
100.693
100.695
100.697
100.699
100.702
100.705
100.709
100.713
100.716
100.721
100.725
100.729
100.734
100.739
100.743
100.748
100.752
100.757
100.761
100.765
100.769
100.773
100.777
100.78
100.783
100.786
100.788
100.791
100.792
100.794
100.795
100.796
100.797
100.798
100.798
100.798
100.798
100.798
100.798
100.798
100.798
100.797
100.797
100.797
100.797
100.796
100.796
100.796
100.796
100.796
100.796
100.796
100.797
100.797
100.797
100.797
100.797
100.797
100.798
100.798
100.798
100.798
100.798
100.798
101.675
101.674
101.673
101.671
101.669
101.667
101.664
101.662
101.659
101.657
101.654
101.653
101.651
101.65
101.649
101.648
101.648
101.649
101.649
101.65
101.651
101.652
101.653
101.654
101.655
101.656
101.656
101.656
101.655
101.654
101.653
101.651
101.648
101.644
101.64
101.636
101.63
101.625
101.618
101.611
101.604
101.597
101.589
101.581
101.573
101.565
101.556
101.548
101.54
101.532
101.524
101.516
101.509
101.502
101.495
101.488
101.482
101.476
101.471
101.465
101.46
101.455
101.451
101.446
101.442
101.438
101.434
101.43
101.426
101.422
101.418
101.414
101.411
101.407
101.403
101.399
101.395
101.392
101.388
101.384
101.38
101.376
101.372
101.368
101.364
101.36
101.355
101.351
101.347
101.343
101.338
101.334
101.33
101.325
101.321
101.316
101.312
101.308
101.303
101.299
101.294
101.289
101.285
101.28
101.276
101.271
101.266
101.262
101.257
101.252
101.247
101.242
101.237
101.231
101.226
101.22
101.214
101.208
101.202
101.196
101.19
101.183
101.177
101.17
101.164
101.157
101.151
101.144
101.137
101.131
101.124
101.117
101.111
101.104
101.097
101.091
101.084
101.077
101.07
101.063
101.055
101.047
101.04
101.031
101.023
101.014
101.005
100.996
100.986
100.975
100.965
100.954
100.943
100.932
100.92
100.909
100.898
100.887
100.876
100.865
100.855
100.845
100.836
100.827
100.818
100.81
100.802
100.794
100.787
100.78
100.773
100.767
100.761
100.755
100.749
100.744
100.739
100.735
100.73
100.726
100.723
100.72
100.717
100.715
100.714
100.713
100.712
100.713
100.713
100.714
100.716
100.718
100.72
100.723
100.726
100.729
100.733
100.737
100.741
100.745
100.749
100.754
100.758
100.762
100.767
100.771
100.775
100.778
100.782
100.785
100.788
100.791
100.793
100.795
100.796
100.797
100.798
100.798
100.798
100.797
100.796
100.795
100.793
100.791
100.789
100.787
100.784
100.782
100.779
100.776
100.774
100.771
100.768
100.766
100.763
100.761
100.759
100.757
100.755
100.753
100.752
100.751
100.749
100.748
100.747
100.747
100.746
100.745
100.745
100.744
100.744
100.744
100.744
100.743
100.743
100.743
101.67
101.67
101.669
101.667
101.666
101.664
101.662
101.659
101.657
101.655
101.654
101.652
101.651
101.65
101.649
101.649
101.649
101.649
101.65
101.651
101.651
101.652
101.653
101.654
101.654
101.655
101.654
101.654
101.653
101.652
101.65
101.648
101.645
101.642
101.638
101.633
101.628
101.623
101.617
101.61
101.603
101.596
101.589
101.581
101.573
101.565
101.557
101.549
101.541
101.534
101.526
101.519
101.511
101.504
101.498
101.491
101.485
101.479
101.473
101.468
101.462
101.457
101.452
101.448
101.443
101.438
101.434
101.43
101.425
101.421
101.417
101.413
101.408
101.404
101.4
101.396
101.392
101.388
101.384
101.38
101.376
101.372
101.368
101.364
101.36
101.356
101.352
101.347
101.343
101.339
101.335
101.33
101.326
101.322
101.317
101.313
101.308
101.304
101.299
101.295
101.29
101.285
101.28
101.276
101.271
101.266
101.261
101.256
101.251
101.246
101.241
101.236
101.23
101.225
101.22
101.214
101.208
101.202
101.197
101.191
101.184
101.178
101.172
101.166
101.159
101.153
101.147
101.141
101.134
101.128
101.122
101.115
101.109
101.103
101.096
101.09
101.083
101.077
101.07
101.063
101.056
101.048
101.041
101.033
101.024
101.016
101.007
100.998
100.988
100.978
100.968
100.957
100.947
100.936
100.925
100.915
100.904
100.894
100.884
100.875
100.866
100.857
100.849
100.841
100.833
100.826
100.819
100.812
100.805
100.799
100.793
100.787
100.781
100.775
100.77
100.765
100.76
100.756
100.752
100.748
100.745
100.743
100.741
100.739
100.738
100.738
100.738
100.739
100.741
100.743
100.746
100.748
100.752
100.756
100.76
100.764
100.768
100.773
100.777
100.782
100.786
100.791
100.795
100.799
100.802
100.806
100.809
100.811
100.814
100.815
100.816
100.817
100.817
100.817
100.816
100.814
100.812
100.809
100.806
100.803
100.799
100.794
100.789
100.784
100.779
100.774
100.768
100.763
100.757
100.752
100.746
100.741
100.736
100.731
100.726
100.722
100.718
100.714
100.71
100.707
100.704
100.701
100.698
100.696
100.694
100.692
100.69
100.689
100.687
100.686
100.685
100.685
100.684
100.684
100.684
100.683
101.666
101.665
101.665
101.663
101.662
101.661
101.659
101.657
101.656
101.654
101.653
101.652
101.651
101.65
101.65
101.65
101.65
101.65
101.65
101.651
101.651
101.652
101.653
101.653
101.653
101.653
101.653
101.652
101.651
101.65
101.648
101.645
101.643
101.639
101.635
101.631
101.626
101.621
101.615
101.609
101.602
101.596
101.589
101.581
101.574
101.566
101.559
101.551
101.544
101.536
101.529
101.521
101.514
101.507
101.501
101.494
101.488
101.482
101.476
101.47
101.465
101.459
101.454
101.449
101.444
101.439
101.434
101.429
101.425
101.42
101.415
101.411
101.406
101.402
101.397
101.393
101.389
101.385
101.38
101.376
101.372
101.368
101.364
101.36
101.356
101.352
101.348
101.344
101.339
101.335
101.331
101.327
101.322
101.318
101.314
101.309
101.305
101.3
101.295
101.29
101.286
101.281
101.276
101.271
101.266
101.261
101.256
101.251
101.245
101.24
101.235
101.23
101.224
101.219
101.214
101.208
101.202
101.197
101.191
101.185
101.179
101.173
101.167
101.161
101.155
101.149
101.143
101.137
101.131
101.125
101.12
101.114
101.108
101.102
101.096
101.089
101.083
101.077
101.07
101.064
101.057
101.049
101.042
101.034
101.026
101.018
101.009
101
100.991
100.981
100.971
100.961
100.951
100.941
100.931
100.922
100.912
100.903
100.894
100.886
100.878
100.87
100.863
100.856
100.85
100.844
100.837
100.831
100.825
100.82
100.814
100.808
100.803
100.798
100.793
100.788
100.783
100.779
100.776
100.773
100.77
100.768
100.767
100.766
100.766
100.767
100.769
100.771
100.773
100.776
100.78
100.784
100.788
100.793
100.797
100.802
100.807
100.812
100.817
100.822
100.826
100.83
100.834
100.838
100.84
100.843
100.845
100.846
100.846
100.846
100.845
100.843
100.841
100.838
100.834
100.83
100.825
100.819
100.813
100.806
100.799
100.792
100.784
100.775
100.767
100.759
100.75
100.742
100.733
100.725
100.717
100.709
100.701
100.694
100.687
100.68
100.674
100.668
100.662
100.657
100.652
100.648
100.644
100.64
100.636
100.633
100.631
100.628
100.626
100.625
100.623
100.622
100.621
100.62
100.62
100.62
101.661
101.661
101.661
101.66
101.659
101.658
101.657
101.655
101.654
101.653
101.652
101.651
101.651
101.65
101.65
101.65
101.65
101.651
101.651
101.651
101.652
101.652
101.652
101.652
101.652
101.652
101.651
101.65
101.649
101.648
101.645
101.643
101.64
101.637
101.633
101.629
101.624
101.619
101.614
101.608
101.602
101.595
101.589
101.582
101.575
101.568
101.561
101.553
101.546
101.539
101.532
101.525
101.518
101.511
101.504
101.498
101.492
101.485
101.479
101.473
101.468
101.462
101.456
101.451
101.445
101.44
101.434
101.429
101.424
101.419
101.414
101.409
101.404
101.399
101.395
101.39
101.386
101.381
101.377
101.373
101.368
101.364
101.36
101.356
101.352
101.348
101.344
101.34
101.336
101.332
101.327
101.323
101.319
101.314
101.31
101.305
101.301
101.296
101.291
101.286
101.281
101.276
101.271
101.266
101.261
101.256
101.251
101.245
101.24
101.235
101.23
101.224
101.219
101.213
101.208
101.202
101.197
101.191
101.186
101.18
101.174
101.168
101.163
101.157
101.151
101.145
101.14
101.134
101.129
101.123
101.117
101.112
101.106
101.101
101.095
101.089
101.083
101.077
101.071
101.064
101.058
101.051
101.044
101.036
101.028
101.02
101.012
101.003
100.994
100.985
100.976
100.966
100.957
100.948
100.939
100.93
100.921
100.913
100.906
100.899
100.892
100.886
100.879
100.874
100.868
100.863
100.857
100.852
100.847
100.842
100.837
100.831
100.826
100.822
100.817
100.813
100.809
100.806
100.803
100.8
100.799
100.797
100.797
100.797
100.799
100.8
100.803
100.806
100.81
100.814
100.818
100.823
100.828
100.834
100.839
100.845
100.85
100.855
100.86
100.865
100.869
100.873
100.876
100.878
100.88
100.881
100.881
100.88
100.878
100.876
100.873
100.869
100.864
100.858
100.851
100.844
100.836
100.827
100.818
100.808
100.797
100.786
100.775
100.764
100.752
100.741
100.729
100.718
100.707
100.695
100.685
100.674
100.664
100.654
100.645
100.636
100.627
100.619
100.612
100.605
100.598
100.592
100.587
100.582
100.577
100.573
100.569
100.566
100.563
100.56
100.558
100.556
100.555
100.554
100.553
100.553
101.657
101.657
101.657
101.656
101.656
101.655
101.654
101.654
101.653
101.652
101.652
101.651
101.651
101.651
101.651
101.651
101.651
101.651
101.651
101.652
101.652
101.652
101.652
101.652
101.651
101.651
101.65
101.649
101.647
101.646
101.643
101.641
101.638
101.635
101.631
101.627
101.623
101.618
101.613
101.607
101.602
101.596
101.589
101.583
101.576
101.57
101.563
101.556
101.549
101.542
101.535
101.529
101.522
101.515
101.509
101.502
101.496
101.489
101.483
101.477
101.471
101.465
101.459
101.452
101.446
101.441
101.435
101.429
101.423
101.418
101.412
101.407
101.402
101.397
101.392
101.387
101.383
101.378
101.374
101.369
101.365
101.361
101.357
101.353
101.349
101.345
101.34
101.336
101.332
101.328
101.324
101.32
101.315
101.311
101.306
101.302
101.297
101.292
101.287
101.282
101.277
101.272
101.267
101.262
101.256
101.251
101.246
101.241
101.235
101.23
101.224
101.219
101.214
101.208
101.203
101.197
101.192
101.186
101.181
101.175
101.169
101.164
101.158
101.153
101.147
101.142
101.137
101.131
101.126
101.121
101.116
101.11
101.105
101.1
101.094
101.089
101.083
101.078
101.072
101.065
101.059
101.053
101.046
101.038
101.031
101.023
101.015
101.007
100.998
100.99
100.981
100.972
100.964
100.955
100.947
100.939
100.932
100.925
100.919
100.913
100.907
100.902
100.897
100.892
100.888
100.883
100.879
100.874
100.869
100.865
100.86
100.856
100.852
100.847
100.844
100.84
100.837
100.834
100.832
100.831
100.83
100.83
100.831
100.832
100.835
100.838
100.841
100.846
100.85
100.856
100.861
100.867
100.873
100.879
100.885
100.891
100.896
100.901
100.906
100.91
100.913
100.916
100.917
100.918
100.919
100.918
100.916
100.913
100.909
100.904
100.899
100.892
100.884
100.875
100.865
100.855
100.844
100.832
100.819
100.806
100.792
100.778
100.764
100.75
100.735
100.721
100.706
100.692
100.678
100.664
100.651
100.638
100.625
100.613
100.601
100.59
100.58
100.57
100.561
100.552
100.544
100.536
100.529
100.522
100.517
100.511
100.506
100.502
100.498
100.495
100.492
100.49
100.488
100.487
100.486
100.486
101.654
101.654
101.654
101.653
101.653
101.653
101.652
101.652
101.652
101.651
101.651
101.651
101.651
101.651
101.651
101.651
101.651
101.652
101.652
101.652
101.652
101.652
101.652
101.651
101.651
101.65
101.649
101.648
101.646
101.644
101.642
101.639
101.636
101.633
101.63
101.626
101.622
101.617
101.612
101.607
101.602
101.596
101.59
101.584
101.578
101.572
101.566
101.559
101.553
101.546
101.54
101.533
101.527
101.52
101.514
101.507
101.5
101.494
101.487
101.481
101.474
101.468
101.461
101.455
101.448
101.442
101.435
101.429
101.423
101.417
101.411
101.406
101.4
101.395
101.39
101.385
101.38
101.375
101.371
101.366
101.362
101.358
101.354
101.35
101.346
101.342
101.337
101.333
101.329
101.325
101.321
101.317
101.312
101.308
101.303
101.298
101.294
101.289
101.284
101.279
101.274
101.268
101.263
101.258
101.252
101.247
101.242
101.236
101.231
101.226
101.22
101.215
101.209
101.204
101.198
101.193
101.187
101.182
101.176
101.171
101.165
101.16
101.154
101.149
101.144
101.139
101.134
101.129
101.124
101.119
101.114
101.109
101.104
101.099
101.094
101.089
101.084
101.079
101.073
101.067
101.061
101.055
101.048
101.041
101.034
101.027
101.019
101.011
101.003
100.995
100.987
100.979
100.971
100.964
100.956
100.95
100.944
100.938
100.933
100.928
100.923
100.919
100.915
100.912
100.908
100.904
100.901
100.897
100.893
100.889
100.886
100.882
100.878
100.875
100.872
100.869
100.867
100.866
100.865
100.865
100.865
100.866
100.869
100.871
100.875
100.879
100.884
100.89
100.896
100.902
100.908
100.915
100.921
100.927
100.933
100.939
100.944
100.948
100.952
100.955
100.957
100.958
100.959
100.958
100.956
100.953
100.949
100.943
100.937
100.929
100.921
100.911
100.9
100.888
100.875
100.862
100.847
100.832
100.817
100.8
100.784
100.767
100.75
100.732
100.715
100.698
100.681
100.664
100.647
100.631
100.615
100.6
100.585
100.571
100.557
100.544
100.532
100.52
100.509
100.498
100.489
100.479
100.471
100.463
100.456
100.449
100.443
100.438
100.433
100.429
100.426
100.423
100.421
100.419
100.418
100.418
101.651
101.651
101.651
101.651
101.651
101.651
101.651
101.651
101.651
101.651
101.651
101.651
101.651
101.651
101.652
101.652
101.652
101.652
101.652
101.652
101.652
101.652
101.652
101.651
101.65
101.649
101.648
101.647
101.645
101.643
101.641
101.638
101.635
101.632
101.629
101.625
101.621
101.617
101.612
101.607
101.602
101.597
101.592
101.586
101.581
101.575
101.569
101.563
101.557
101.551
101.544
101.538
101.532
101.525
101.519
101.512
101.506
101.499
101.492
101.485
101.478
101.471
101.464
101.457
101.45
101.443
101.436
101.43
101.423
101.417
101.411
101.405
101.399
101.393
101.388
101.383
101.378
101.373
101.368
101.364
101.36
101.355
101.351
101.347
101.343
101.339
101.335
101.331
101.327
101.323
101.318
101.314
101.31
101.305
101.3
101.296
101.291
101.286
101.281
101.276
101.27
101.265
101.26
101.254
101.249
101.244
101.238
101.233
101.227
101.222
101.216
101.211
101.205
101.2
101.194
101.189
101.183
101.178
101.173
101.167
101.162
101.156
101.151
101.146
101.141
101.136
101.131
101.127
101.122
101.118
101.113
101.109
101.104
101.099
101.095
101.09
101.085
101.08
101.075
101.069
101.064
101.058
101.051
101.045
101.038
101.031
101.024
101.016
101.009
101.001
100.994
100.986
100.979
100.973
100.967
100.961
100.956
100.952
100.948
100.944
100.941
100.938
100.935
100.932
100.929
100.926
100.924
100.921
100.918
100.915
100.912
100.909
100.907
100.904
100.902
100.901
100.9
100.9
100.9
100.902
100.904
100.907
100.91
100.915
100.92
100.925
100.931
100.938
100.945
100.951
100.958
100.965
100.971
100.978
100.983
100.988
100.992
100.996
100.998
101
101
100.999
100.997
100.994
100.99
100.984
100.977
100.969
100.96
100.949
100.938
100.925
100.911
100.896
100.88
100.863
100.846
100.828
100.809
100.79
100.771
100.751
100.732
100.712
100.692
100.672
100.653
100.634
100.615
100.597
100.579
100.561
100.545
100.528
100.513
100.498
100.484
100.47
100.458
100.446
100.434
100.424
100.414
100.405
100.396
100.389
100.382
100.375
100.37
100.365
100.361
100.358
100.355
100.353
100.352
100.351
101.648
101.648
101.649
101.649
101.649
101.649
101.649
101.65
101.65
101.65
101.65
101.651
101.651
101.652
101.652
101.652
101.652
101.653
101.653
101.653
101.652
101.652
101.652
101.651
101.65
101.649
101.648
101.646
101.644
101.642
101.64
101.637
101.634
101.631
101.628
101.625
101.621
101.617
101.613
101.608
101.604
101.599
101.594
101.589
101.583
101.578
101.573
101.567
101.561
101.555
101.55
101.543
101.537
101.531
101.524
101.518
101.511
101.504
101.497
101.49
101.482
101.475
101.467
101.46
101.453
101.445
101.438
101.431
101.424
101.417
101.41
101.404
101.398
101.392
101.387
101.381
101.376
101.371
101.367
101.362
101.358
101.353
101.349
101.345
101.341