# vtk DataFile Version 2.0
HPC Tutorials: Michael Bader, Kaveh Rahnema, Oliver Meister
ASCII
DATASET RECTILINEAR_GRID
DIMENSIONS 257 257 1
X_COORDINATES 257 float
0
0.005
0.01
0.015
0.02
0.025
0.03
0.035
0.04
0.045
0.05
0.055
0.06
0.065
0.07
0.075
0.08
0.085
0.09
0.095
0.1
0.105
0.11
0.115
0.12
0.125
0.13
0.135
0.14
0.145
0.15
0.155
0.16
0.165
0.17
0.175
0.18
0.185
0.19
0.195
0.2
0.205
0.21
0.215
0.22
0.225
0.23
0.235
0.24
0.245
0.25
0.255
0.26
0.265
0.27
0.275
0.28
0.285
0.29
0.295
0.3
0.305
0.31
0.315
0.32
0.325
0.33
0.335
0.34
0.345
0.35
0.355
0.36
0.365
0.37
0.375
0.38
0.385
0.39
0.395
0.4
0.405
0.41
0.415
0.42
0.425
0.43
0.435
0.44
0.445
0.45
0.455
0.46
0.465
0.47
0.475
0.48
0.485
0.49
0.495
0.5
0.505
0.51
0.515
0.52
0.525
0.53
0.535
0.54
0.545
0.55
0.555
0.56
0.565
0.57
0.575
0.58
0.585
0.59
0.595
0.6
0.605
0.61
0.615
0.62
0.625
0.63
0.635
0.64
0.645
0.65
0.655
0.66
0.665
0.67
0.675
0.68
0.685
0.69
0.695
0.7
0.705
0.71
0.715
0.72
0.725
0.73
0.735
0.74
0.745
0.75
0.755
0.76
0.765
0.77
0.775
0.78
0.785
0.79
0.795
0.8
0.805
0.81
0.815
0.82
0.825
0.83
0.835
0.84
0.845
0.85
0.855
0.86
0.865
0.87
0.875
0.88
0.885
0.89
0.895
0.9
0.905
0.91
0.915
0.92
0.925
0.93
0.935
0.94
0.945
0.95
0.955
0.96
0.965
0.97
0.975
0.98
0.985
0.99
0.995
1
1.005
1.01
1.015
1.02
1.025
1.03
1.035
1.04
1.045
1.05
1.055
1.06
1.065
1.07
1.075
1.08
1.085
1.09
1.095
1.1
1.105
1.11
1.115
1.12
1.125
1.13
1.135
1.14
1.145
1.15
1.155
1.16
1.165
1.17
1.175
1.18
1.185
1.19
1.195
1.2
1.205
1.21
1.215
1.22
1.225
1.23
1.235
1.24
1.245
1.25
1.255
1.26
1.265
1.27
1.275
1.28
Y_COORDINATES 257 float
0
0.005
0.01
0.015
0.02
0.025
0.03
0.035
0.04
0.045
0.05
0.055
0.06
0.065
0.07
0.075
0.08
0.085
0.09
0.095
0.1
0.105
0.11
0.115
0.12
0.125
0.13
0.135
0.14
0.145
0.15
0.155
0.16
0.165
0.17
0.175
0.18
0.185
0.19
0.195
0.2
0.205
0.21
0.215
0.22
0.225
0.23
0.235
0.24
0.245
0.25
0.255
0.26
0.265
0.27
0.275
0.28
0.285
0.29
0.295
0.3
0.305
0.31
0.315
0.32
0.325
0.33
0.335
0.34
0.345
0.35
0.355
0.36
0.365
0.37
0.375
0.38
0.385
0.39
0.395
0.4
0.405
0.41
0.415
0.42
0.425
0.43
0.435
0.44
0.445
0.45
0.455
0.46
0.465
0.47
0.475
0.48
0.485
0.49
0.495
0.5
0.505
0.51
0.515
0.52
0.525
0.53
0.535
0.54
0.545
0.55
0.555
0.56
0.565
0.57
0.575
0.58
0.585
0.59
0.595
0.6
0.605
0.61
0.615
0.62
0.625
0.63
0.635
0.64
0.645
0.65
0.655
0.66
0.665
0.67
0.675
0.68
0.685
0.69
0.695
0.7
0.705
0.71
0.715
0.72
0.725
0.73
0.735
0.74
0.745
0.75
0.755
0.76
0.765
0.77
0.775
0.78
0.785
0.79
0.795
0.8
0.805
0.81
0.815
0.82
0.825
0.83
0.835
0.84
0.845
0.85
0.855
0.86
0.865
0.87
0.875
0.88
0.885
0.89
0.895
0.9
0.905
0.91
0.915
0.92
0.925
0.93
0.935
0.94
0.945
0.95
0.955
0.96
0.965
0.97
0.975
0.98
0.985
0.99
0.995
1
1.005
1.01
1.015
1.02
1.025
1.03
1.035
1.04
1.045
1.05
1.055
1.06
1.065
1.07
1.075
1.08
1.085
1.09
1.095
1.1
1.105
1.11
1.115
1.12
1.125
1.13
1.135
1.14
1.145
1.15
1.155
1.16
1.165
1.17
1.175
1.18
1.185
1.19
1.195
1.2
1.205
1.21
1.215
1.22
1.225
1.23
1.235
1.24
1.245
1.25
1.255
1.26
1.265
1.27
1.275
1.28
Z_COORDINATES 1 float
0
CELL_DATA 65536
SCALARS H float 1
LOOKUP_TABLE default
99.5953
99.5983
99.603
99.6099
99.6189
99.6303
99.6439
99.6599
99.6782
99.6988
99.7217
99.7469
99.7744
99.8042
99.8364
99.8711
99.9083
99.948
99.9903
100.035
100.082
100.131
100.181
100.232
100.284
100.336
100.386
100.435
100.481
100.523
100.562
100.596
100.624
100.647
100.663
100.674
100.678
100.677
100.67
100.658
100.642
100.623
100.602
100.58
100.557
100.534
100.513
100.493
100.474
100.457
100.442
100.429
100.417
100.407
100.398
100.39
100.384
100.378
100.373
100.368
100.364
100.361
100.358
100.356
100.354
100.353
100.351
100.351
100.35
100.35
100.35
100.35
100.351
100.352
100.353
100.355
100.358
100.361
100.366
100.371
100.377
100.383
100.39
100.398
100.406
100.413
100.421
100.429
100.436
100.442
100.449
100.455
100.46
100.465
100.47
100.474
100.478
100.482
100.486
100.489
100.492
100.496
100.499
100.502
100.506
100.509
100.512
100.516
100.519
100.523
100.527
100.531
100.535
100.539
100.543
100.547
100.552
100.556
100.56
100.564
100.568
100.572
100.575
100.579
100.582
100.584
100.587
100.589
100.59
100.591
100.592
100.593
100.593
100.592
100.592
100.591
100.589
100.588
100.586
100.584
100.582
100.581
100.579
100.577
100.575
100.574
100.573
100.572
100.572
100.573
100.573
100.575
100.577
100.579
100.582
100.586
100.591
100.596
100.602
100.609
100.616
100.623
100.632
100.64
100.65
100.659
100.669
100.679
100.689
100.7
100.71
100.72
100.731
100.741
100.751
100.761
100.771
100.78
100.789
100.798
100.806
100.814
100.821
100.828
100.834
100.84
100.846
100.851
100.856
100.86
100.864
100.867
100.87
100.873
100.875
100.877
100.879
100.88
100.881
100.882
100.883
100.883
100.883
100.883
100.883
100.882
100.882
100.881
100.88
100.879
100.877
100.876
100.875
100.873
100.872
100.87
100.868
100.867
100.865
100.863
100.862
100.86
100.858
100.857
100.855
100.854
100.852
100.851
100.849
100.848
100.846
100.845
100.844
100.843
100.842
100.841
100.84
100.839
100.838
100.837
100.837
100.836
100.835
100.835
100.834
100.834
100.833
100.833
100.833
100.832
100.832
100.832
100.832
100.832
100.831
100.831
99.5963
99.5994
99.6044
99.6116
99.6211
99.6329
99.647
99.6634
99.6822
99.7032
99.7264
99.7519
99.7796
99.8095
99.8417
99.8763
99.9133
99.9527
99.9945
100.039
100.085
100.133
100.182
100.233
100.283
100.334
100.383
100.43
100.475
100.517
100.555
100.588
100.616
100.638
100.655
100.665
100.67
100.67
100.664
100.653
100.639
100.621
100.601
100.58
100.558
100.536
100.514
100.494
100.476
100.459
100.444
100.431
100.419
100.408
100.399
100.391
100.384
100.378
100.373
100.368
100.364
100.361
100.358
100.355
100.353
100.352
100.351
100.35
100.349
100.349
100.349
100.349
100.349
100.35
100.351
100.353
100.356
100.359
100.364
100.369
100.374
100.381
100.388
100.395
100.402
100.41
100.417
100.425
100.432
100.438
100.444
100.45
100.456
100.461
100.465
100.469
100.474
100.477
100.481
100.485
100.488
100.491
100.495
100.498
100.501
100.505
100.508
100.511
100.515
100.519
100.522
100.526
100.53
100.534
100.539
100.543
100.547
100.551
100.555
100.559
100.563
100.567
100.571
100.574
100.577
100.58
100.582
100.584
100.586
100.587
100.588
100.588
100.588
100.588
100.587
100.586
100.585
100.584
100.582
100.58
100.578
100.577
100.575
100.573
100.571
100.57
100.569
100.569
100.568
100.569
100.569
100.571
100.573
100.575
100.578
100.582
100.587
100.592
100.598
100.605
100.612
100.619
100.627
100.636
100.645
100.655
100.665
100.675
100.685
100.695
100.706
100.716
100.726
100.737
100.747
100.757
100.766
100.776
100.785
100.793
100.801
100.809
100.817
100.824
100.83
100.836
100.842
100.847
100.852
100.856
100.86
100.864
100.867
100.87
100.873
100.875
100.877
100.878
100.88
100.881
100.881
100.882
100.882
100.882
100.882
100.882
100.882
100.881
100.88
100.879
100.878
100.877
100.876
100.875
100.873
100.872
100.87
100.869
100.867
100.866
100.864
100.862
100.861
100.859
100.858
100.856
100.855
100.853
100.852
100.851
100.849
100.848
100.847
100.846
100.845
100.844
100.843
100.842
100.841
100.84
100.839
100.839
100.838
100.837
100.837
100.836
100.836
100.835
100.835
100.835
100.835
100.834
100.834
100.834
100.834
100.834
99.5978
99.6012
99.6066
99.6144
99.6245
99.637
99.6519
99.669
99.6885
99.7101
99.7339
99.7598
99.7878
99.8179
99.8502
99.8847
99.9214
99.9604
100.002
100.045
100.09
100.137
100.185
100.234
100.283
100.331
100.378
100.424
100.467
100.507
100.543
100.575
100.602
100.624
100.641
100.652
100.657
100.658
100.654
100.645
100.632
100.616
100.598
100.578
100.558
100.537
100.517
100.497
100.479
100.462
100.447
100.433
100.421
100.41
100.401
100.393
100.385
100.379
100.373
100.368
100.364
100.36
100.357
100.354
100.352
100.35
100.349
100.348
100.347
100.346
100.346
100.346
100.346
100.347
100.348
100.35
100.353
100.356
100.36
100.365
100.37
100.377
100.383
100.39
100.397
100.404
100.412
100.419
100.425
100.432
100.438
100.443
100.448
100.453
100.458
100.462
100.466
100.47
100.474
100.477
100.481
100.484
100.488
100.491
100.494
100.498
100.501
100.505
100.508
100.512
100.516
100.519
100.523
100.527
100.532
100.536
100.54
100.544
100.548
100.552
100.556
100.56
100.564
100.567
100.57
100.573
100.575
100.577
100.579
100.58
100.581
100.582
100.582
100.582
100.581
100.58
100.579
100.578
100.576
100.574
100.573
100.571
100.569
100.567
100.566
100.565
100.564
100.563
100.563
100.563
100.564
100.565
100.567
100.57
100.573
100.577
100.581
100.586
100.592
100.599
100.606
100.613
100.621
100.63
100.639
100.648
100.658
100.668
100.678
100.689
100.699
100.709
100.72
100.73
100.74
100.75
100.759
100.769
100.778
100.786
100.795
100.803
100.81
100.817
100.824
100.83
100.836
100.841
100.846
100.851
100.855
100.859
100.863
100.866
100.869
100.871
100.873
100.875
100.877
100.878
100.879
100.88
100.881
100.881
100.881
100.881
100.881
100.881
100.88
100.88
100.879
100.878
100.877
100.876
100.875
100.874
100.873
100.871
100.87
100.868
100.867
100.866
100.864
100.863
100.861
100.86
100.858
100.857
100.856
100.854
100.853
100.852
100.851
100.849
100.848
100.847
100.846
100.845
100.844
100.844
100.843
100.842
100.841
100.841
100.84
100.839
100.839
100.838
100.838
100.838
100.837
100.837
100.837
100.837
100.837
100.837
99.6004
99.6041
99.61
99.6186
99.6296
99.6431
99.6589
99.6771
99.6975
99.72
99.7446
99.7711
99.7995
99.8299
99.8622
99.8965
99.9328
99.9711
100.011
100.053
100.097
100.142
100.188
100.235
100.281
100.327
100.372
100.414
100.455
100.492
100.526
100.557
100.583
100.604
100.621
100.632
100.639
100.642
100.639
100.633
100.623
100.61
100.594
100.576
100.558
100.539
100.519
100.501
100.483
100.466
100.451
100.437
100.424
100.413
100.403
100.394
100.386
100.379
100.373
100.368
100.363
100.359
100.356
100.353
100.35
100.348
100.346
100.345
100.344
100.343
100.342
100.342
100.342
100.343
100.344
100.346
100.348
100.351
100.355
100.36
100.365
100.371
100.377
100.383
100.39
100.397
100.404
100.41
100.416
100.422
100.428
100.434
100.439
100.444
100.448
100.452
100.457
100.46
100.464
100.468
100.471
100.475
100.478
100.482
100.485
100.489
100.492
100.496
100.499
100.503
100.507
100.51
100.514
100.518
100.522
100.527
100.531
100.535
100.539
100.543
100.547
100.551
100.554
100.558
100.561
100.564
100.566
100.569
100.57
100.572
100.573
100.573
100.574
100.574
100.573
100.572
100.571
100.57
100.569
100.567
100.565
100.563
100.562
100.56
100.559
100.557
100.556
100.556
100.556
100.556
100.557
100.558
100.56
100.562
100.566
100.569
100.574
100.579
100.585
100.591
100.598
100.606
100.614
100.622
100.631
100.64
100.65
100.66
100.67
100.68
100.69
100.701
100.711
100.721
100.731
100.741
100.751
100.76
100.769
100.778
100.786
100.794
100.802
100.809
100.816
100.822
100.828
100.834
100.839
100.844
100.849
100.853
100.857
100.86
100.863
100.866
100.869
100.871
100.873
100.875
100.876
100.877
100.878
100.879
100.88
100.88
100.881
100.881
100.88
100.88
100.88
100.879
100.879
100.878
100.877
100.876
100.875
100.874
100.873
100.872
100.87
100.869
100.868
100.866
100.865
100.864
100.862
100.861
100.86
100.858
100.857
100.856
100.855
100.853
100.852
100.851
100.85
100.849
100.848
100.847
100.846
100.845
100.845
100.844
100.843
100.842
100.842
100.841
100.841
100.84
100.84
100.84
100.84
100.839
100.839
100.839
99.6042
99.6084
99.6149
99.6243
99.6364
99.651
99.6681
99.6875
99.7091
99.7327
99.7581
99.7854
99.8144
99.845
99.8774
99.9114
99.9472
99.9846
100.024
100.064
100.106
100.149
100.192
100.236
100.279
100.322
100.363
100.402
100.439
100.474
100.506
100.534
100.558
100.579
100.596
100.608
100.617
100.621
100.621
100.618
100.611
100.601
100.588
100.573
100.557
100.54
100.522
100.505
100.488
100.471
100.456
100.442
100.428
100.417
100.406
100.396
100.388
100.38
100.373
100.368
100.362
100.358
100.354
100.35
100.347
100.345
100.343
100.341
100.34
100.338
100.338
100.337
100.337
100.337
100.338
100.34
100.342
100.345
100.349
100.353
100.358
100.363
100.369
100.375
100.381
100.387
100.394
100.4
100.406
100.411
100.417
100.422
100.427
100.432
100.437
100.441
100.445
100.449
100.453
100.457
100.46
100.464
100.467
100.471
100.474
100.478
100.482
100.485
100.489
100.492
100.496
100.5
100.504
100.508
100.512
100.516
100.52
100.525
100.529
100.533
100.537
100.541
100.544
100.548
100.551
100.554
100.557
100.559
100.561
100.562
100.563
100.564
100.565
100.565
100.564
100.564
100.563
100.562
100.56
100.559
100.557
100.555
100.554
100.552
100.551
100.55
100.549
100.548
100.548
100.548
100.549
100.55
100.552
100.555
100.558
100.562
100.566
100.571
100.577
100.583
100.59
100.597
100.605
100.614
100.622
100.631
100.641
100.651
100.661
100.671
100.681
100.691
100.701
100.711
100.721
100.731
100.741
100.75
100.759
100.768
100.776
100.785
100.792
100.8
100.807
100.813
100.82
100.826
100.831
100.836
100.841
100.846
100.85
100.854
100.857
100.86
100.863
100.866
100.868
100.87
100.872
100.874
100.875
100.877
100.878
100.878
100.879
100.88
100.88
100.88
100.88
100.88
100.879
100.879
100.878
100.878
100.877
100.876
100.875
100.874
100.873
100.872
100.87
100.869
100.868
100.867
100.865
100.864
100.863
100.861
100.86
100.859
100.858
100.856
100.855
100.854
100.853
100.852
100.851
100.849
100.848
100.848
100.847
100.846
100.845
100.844
100.844
100.843
100.842
100.842
100.842
100.841
100.841
100.841
100.841
100.841
99.6096
99.6143
99.6215
99.6319
99.6451
99.6611
99.6795
99.7003
99.7232
99.7479
99.7744
99.8025
99.8321
99.8631
99.8954
99.9291
99.9642
100
100.038
100.077
100.116
100.156
100.196
100.236
100.276
100.314
100.352
100.387
100.421
100.452
100.481
100.507
100.53
100.55
100.566
100.58
100.59
100.596
100.6
100.599
100.596
100.589
100.58
100.569
100.555
100.541
100.525
100.509
100.492
100.476
100.461
100.446
100.433
100.42
100.409
100.399
100.389
100.381
100.374
100.367
100.361
100.356
100.352
100.348
100.344
100.341
100.339
100.337
100.335
100.333
100.332
100.331
100.331
100.331
100.332
100.334
100.336
100.339
100.342
100.346
100.35
100.355
100.36
100.366
100.371
100.377
100.383
100.388
100.394
100.399
100.404
100.41
100.415
100.419
100.424
100.428
100.433
100.437
100.441
100.445
100.448
100.452
100.456
100.459
100.463
100.467
100.47
100.474
100.478
100.482
100.485
100.489
100.493
100.497
100.501
100.506
100.51
100.514
100.518
100.522
100.526
100.53
100.534
100.537
100.541
100.544
100.546
100.549
100.551
100.553
100.554
100.555
100.555
100.556
100.555
100.555
100.554
100.553
100.552
100.55
100.549
100.547
100.546
100.545
100.543
100.542
100.541
100.541
100.541
100.541
100.542
100.543
100.545
100.548
100.551
100.554
100.559
100.564
100.569
100.575
100.582
100.589
100.597
100.605
100.614
100.623
100.632
100.642
100.651
100.661
100.671
100.682
100.692
100.702
100.712
100.721
100.731
100.74
100.749
100.758
100.767
100.775
100.783
100.791
100.798
100.805
100.811
100.817
100.823
100.829
100.834
100.838
100.843
100.847
100.851
100.854
100.858
100.861
100.863
100.866
100.868
100.87
100.872
100.873
100.875
100.876
100.877
100.877
100.878
100.878
100.879
100.879
100.879
100.878
100.878
100.877
100.877
100.876
100.875
100.875
100.874
100.873
100.871
100.87
100.869
100.868
100.867
100.865
100.864
100.863
100.861
100.86
100.859
100.857
100.856
100.855
100.853
100.852
100.851
100.85
100.849
100.848
100.847
100.846
100.845
100.844
100.843
100.842
100.842
100.841
100.841
100.84
100.84
100.84
100.84
100.839
99.6171
99.6222
99.6302
99.6416
99.656
99.6733
99.6932
99.7154
99.7396
99.7657
99.7933
99.8222
99.8524
99.8837
99.9159
99.9492
99.9833
100.018
100.054
100.09
100.127
100.163
100.2
100.236
100.271
100.305
100.338
100.37
100.399
100.427
100.452
100.476
100.497
100.517
100.533
100.548
100.56
100.569
100.575
100.578
100.578
100.576
100.57
100.562
100.552
100.54
100.527
100.512
100.497
100.482
100.466
100.452
100.438
100.424
100.412
100.401
100.391
100.382
100.374
100.366
100.36
100.354
100.349
100.345
100.341
100.337
100.334
100.332
100.329
100.327
100.326
100.325
100.325
100.325
100.326
100.327
100.329
100.331
100.334
100.338
100.342
100.346
100.351
100.356
100.361
100.366
100.371
100.376
100.381
100.387
100.392
100.397
100.401
100.406
100.411
100.415
100.42
100.424
100.428
100.432
100.436
100.44
100.444
100.448
100.452
100.456
100.459
100.463
100.467
100.471
100.475
100.479
100.483
100.487
100.491
100.496
100.5
100.504
100.508
100.512
100.517
100.52
100.524
100.528
100.531
100.534
100.537
100.54
100.542
100.544
100.545
100.546
100.547
100.547
100.547
100.547
100.546
100.545
100.544
100.543
100.542
100.541
100.539
100.538
100.537
100.536
100.535
100.535
100.535
100.535
100.536
100.537
100.539
100.542
100.545
100.548
100.553
100.557
100.563
100.569
100.575
100.582
100.59
100.598
100.606
100.615
100.624
100.634
100.643
100.653
100.663
100.673
100.683
100.693
100.703
100.713
100.722
100.732
100.741
100.75
100.758
100.767
100.775
100.783
100.79
100.797
100.804
100.81
100.816
100.822
100.827
100.832
100.836
100.841
100.845
100.849
100.852
100.855
100.858
100.861
100.863
100.865
100.867
100.869
100.871
100.872
100.873
100.874
100.875
100.875
100.876
100.876
100.876
100.876
100.876
100.875
100.875
100.874
100.873
100.873
100.872
100.871
100.87
100.869
100.868
100.866
100.865
100.864
100.862
100.861
100.86
100.858
100.857
100.855
100.854
100.853
100.851
100.85
100.849
100.847
100.846
100.845
100.844
100.843
100.842
100.841
100.84
100.839
100.838
100.837
100.837
100.836
100.836
100.836
100.836
100.836
99.6269
99.6325
99.6412
99.6536
99.6693
99.6879
99.7092
99.7329
99.7585
99.7858
99.8145
99.8443
99.875
99.9064
99.9385
99.9711
100.004
100.037
100.071
100.104
100.138
100.171
100.203
100.235
100.265
100.295
100.323
100.349
100.374
100.398
100.421
100.442
100.462
100.481
100.498
100.513
100.527
100.538
100.547
100.554
100.558
100.56
100.558
100.554
100.547
100.538
100.527
100.515
100.501
100.486
100.471
100.457
100.442
100.429
100.416
100.404
100.393
100.383
100.374
100.366
100.358
100.352
100.346
100.341
100.337
100.333
100.329
100.326
100.324
100.321
100.32
100.319
100.318
100.318
100.319
100.32
100.322
100.324
100.327
100.33
100.334
100.338
100.342
100.346
100.351
100.355
100.36
100.365
100.369
100.374
100.379
100.384
100.389
100.394
100.398
100.403
100.408
100.412
100.417
100.421
100.425
100.429
100.434
100.438
100.442
100.446
100.45
100.454
100.458
100.462
100.466
100.47
100.474
100.478
100.483
100.487
100.491
100.496
100.5
100.504
100.508
100.512
100.516
100.52
100.523
100.527
100.529
100.532
100.534
100.536
100.538
100.539
100.54
100.54
100.541
100.54
100.54
100.539
100.539
100.538
100.536
100.535
100.534
100.533
100.532
100.531
100.531
100.53
100.531
100.531
100.532
100.533
100.535
100.538
100.54
100.544
100.548
100.553
100.558
100.564
100.57
100.577
100.585
100.592
100.601
100.609
100.618
100.628
100.637
100.647
100.657
100.667
100.677
100.686
100.696
100.706
100.716
100.725
100.734
100.743
100.752
100.76
100.769
100.776
100.784
100.791
100.798
100.804
100.81
100.816
100.821
100.826
100.831
100.836
100.84
100.843
100.847
100.85
100.853
100.856
100.858
100.861
100.862
100.864
100.866
100.867
100.868
100.869
100.87
100.87
100.871
100.871
100.871
100.871
100.871
100.87
100.87
100.869
100.869
100.868
100.867
100.866
100.865
100.864
100.863
100.861
100.86
100.859
100.857
100.856
100.855
100.853
100.852
100.85
100.849
100.847
100.846
100.844
100.843
100.842
100.84
100.839
100.838
100.836
100.835
100.834
100.833
100.832
100.832
100.831
100.83
100.83
100.829
100.829
100.829
100.829
99.6395
99.6455
99.6549
99.6683
99.6851
99.705
99.7277
99.7527
99.7796
99.8081
99.8378
99.8683
99.8995
99.931
99.9627
99.9944
100.026
100.057
100.088
100.119
100.149
100.177
100.205
100.232
100.257
100.282
100.305
100.326
100.347
100.367
100.387
100.406
100.424
100.442
100.459
100.476
100.491
100.505
100.518
100.528
100.536
100.542
100.544
100.544
100.541
100.535
100.526
100.516
100.504
100.49
100.476
100.461
100.447
100.433
100.419
100.406
100.394
100.384
100.374
100.365
100.357
100.35
100.343
100.338
100.333
100.328
100.324
100.321
100.318
100.316
100.314
100.313
100.312
100.312
100.312
100.314
100.315
100.318
100.32
100.323
100.326
100.33
100.333
100.337
100.341
100.345
100.349
100.354
100.358
100.363
100.368
100.373
100.378
100.383
100.387
100.392
100.397
100.402
100.407
100.411
100.416
100.42
100.425
100.429
100.433
100.437
100.441
100.446
100.45
100.454
100.458
100.463
100.467
100.471
100.476
100.48
100.485
100.489
100.494
100.498
100.502
100.506
100.51
100.514
100.517
100.521
100.524
100.526
100.529
100.531
100.532
100.534
100.535
100.535
100.536
100.536
100.536
100.535
100.535
100.534
100.533
100.532
100.531
100.53
100.529
100.529
100.528
100.528
100.528
100.529
100.53
100.531
100.533
100.536
100.538
100.542
100.546
100.551
100.556
100.561
100.568
100.574
100.582
100.589
100.598
100.606
100.615
100.624
100.633
100.643
100.653
100.663
100.673
100.682
100.692
100.702
100.712
100.721
100.73
100.739
100.748
100.757
100.765
100.773
100.78
100.787
100.794
100.8
100.807
100.812
100.818
100.823
100.827
100.832
100.836
100.839
100.843
100.846
100.849
100.851
100.853
100.855
100.857
100.859
100.86
100.861
100.862
100.863
100.863
100.863
100.864
100.864
100.864
100.863
100.863
100.863
100.862
100.861
100.861
100.86
100.859
100.858
100.857
100.856
100.854
100.853
100.852
100.851
100.849
100.848
100.846
100.845
100.843
100.842
100.84
100.839
100.837
100.836
100.834
100.833
100.831
100.83
100.829
100.828
100.826
100.825
100.824
100.823
100.822
100.822
100.821
100.82
100.82
100.82
100.819
100.819
99.6552
99.6616
99.6717
99.6859
99.7037
99.7247
99.7486
99.7748
99.8029
99.8324
99.8629
99.894
99.9254
99.9568
99.9879
100.019
100.049
100.078
100.106
100.133
100.159
100.183
100.206
100.227
100.247
100.266
100.284
100.301
100.318
100.334
100.351
100.368
100.385
100.402
100.42
100.437
100.455
100.471
100.487
100.5
100.512
100.521
100.528
100.531
100.532
100.529
100.524
100.515
100.505
100.493
100.48
100.466
100.451
100.437
100.423
100.409
100.396
100.385
100.374
100.364
100.356
100.348
100.341
100.335
100.329
100.324
100.32
100.316
100.313
100.31
100.308
100.307
100.306
100.306
100.307
100.308
100.31
100.312
100.314
100.317
100.32
100.323
100.326
100.33
100.333
100.337
100.341
100.345
100.349
100.354
100.358
100.363
100.368
100.373
100.378
100.384
100.389
100.394
100.399
100.404
100.408
100.413
100.418
100.422
100.427
100.431
100.436
100.44
100.445
100.449
100.453
100.458
100.463
100.467
100.472
100.476
100.481
100.485
100.49
100.494
100.498
100.503
100.507
100.51
100.514
100.517
100.52
100.523
100.525
100.528
100.529
100.531
100.532
100.533
100.533
100.534
100.534
100.533
100.533
100.532
100.532
100.531
100.53
100.529
100.529
100.528
100.528
100.528
100.528
100.529
100.53
100.531
100.533
100.536
100.539
100.542
100.546
100.551
100.556
100.561
100.567
100.574
100.581
100.589
100.597
100.605
100.614
100.623
100.632
100.642
100.652
100.662
100.671
100.681
100.691
100.701
100.711
100.72
100.729
100.738
100.747
100.756
100.764
100.772
100.779
100.786
100.793
100.799
100.805
100.811
100.816
100.821
100.825
100.829
100.833
100.836
100.839
100.842
100.844
100.846
100.848
100.85
100.851
100.852
100.853
100.854
100.854
100.855
100.855
100.855
100.855
100.855
100.854
100.854
100.853
100.852
100.852
100.851
100.85
100.849
100.848
100.847
100.846
100.845
100.843
100.842
100.841
100.839
100.838
100.837
100.835
100.834
100.832
100.831
100.829
100.828
100.826
100.825
100.824
100.822
100.821
100.819
100.818
100.817
100.816
100.814
100.813
100.812
100.812
100.811
100.81
100.81
100.809
100.809
100.809
100.809
99.6745
99.6812
99.6917
99.7066
99.7252
99.7472
99.7721
99.7993
99.8283
99.8586
99.8896
99.9211
99.9525
99.9834
100.014
100.043
100.071
100.098
100.123
100.146
100.167
100.187
100.205
100.221
100.235
100.249
100.262
100.274
100.287
100.3
100.314
100.328
100.344
100.361
100.379
100.398
100.417
100.436
100.454
100.471
100.486
100.499
100.509
100.516
100.52
100.521
100.519
100.513
100.505
100.495
100.483
100.469
100.455
100.44
100.426
100.412
100.399
100.386
100.375
100.364
100.355
100.346
100.339
100.332
100.326
100.321
100.316
100.312
100.309
100.306
100.304
100.303
100.302
100.302
100.303
100.304
100.306
100.308
100.31
100.313
100.315
100.318
100.321
100.324
100.327
100.33
100.334
100.338
100.342
100.347
100.351
100.356
100.361
100.367
100.372
100.377
100.383
100.388
100.393
100.398
100.403
100.408
100.413
100.418
100.423
100.428
100.432
100.437
100.442
100.446
100.451
100.456
100.46
100.465
100.47
100.475
100.479
100.484
100.488
100.493
100.497
100.501
100.505
100.509
100.513
100.516
100.519
100.522
100.524
100.527
100.528
100.53
100.531
100.532
100.533
100.533
100.533
100.533
100.533
100.533
100.532
100.532
100.531
100.531
100.53
100.53
100.53
100.53
100.53
100.531
100.532
100.533
100.535
100.538
100.541
100.544
100.548
100.553
100.558
100.563
100.569
100.576
100.583
100.591
100.599
100.607
100.616
100.625
100.634
100.644
100.653
100.663
100.673
100.683
100.693
100.703
100.712
100.722
100.731
100.74
100.749
100.757
100.765
100.773
100.78
100.787
100.794
100.8
100.806
100.811
100.816
100.82
100.824
100.828
100.831
100.834
100.836
100.839
100.84
100.842
100.843
100.844
100.845
100.846
100.846
100.846
100.846
100.846
100.846
100.845
100.845
100.844
100.843
100.842
100.841
100.84
100.839
100.838
100.837
100.836
100.835
100.834
100.833
100.831
100.83
100.829
100.828
100.826
100.825
100.824
100.822
100.821
100.82
100.818
100.817
100.816
100.814
100.813
100.812
100.81
100.809
100.808
100.807
100.805
100.804
100.803
100.802
100.801
100.801
100.8
100.799
100.799
100.798
100.798
100.798
100.798
99.6974
99.7044
99.7153
99.7307
99.7499
99.7726
99.7982
99.8261
99.8557
99.8864
99.9177
99.9491
99.9801
100.01
100.039
100.067
100.093
100.116
100.138
100.157
100.174
100.189
100.201
100.212
100.221
100.23
100.238
100.246
100.255
100.264
100.276
100.289
100.304
100.32
100.339
100.358
100.379
100.4
100.421
100.44
100.459
100.475
100.489
100.499
100.507
100.511
100.512
100.509
100.503
100.495
100.484
100.472
100.458
100.444
100.429
100.415
100.401
100.388
100.376
100.365
100.355
100.346
100.338
100.33
100.324
100.318
100.313
100.309
100.306
100.303
100.301
100.3
100.299
100.3
100.301
100.302
100.304
100.306
100.308
100.31
100.313
100.315
100.318
100.32
100.323
100.326
100.33
100.334
100.338
100.342
100.347
100.352
100.357
100.363
100.368
100.374
100.379
100.385
100.39
100.396
100.401
100.406
100.412
100.417
100.422
100.427
100.432
100.437
100.441
100.446
100.451
100.456
100.461
100.466
100.471
100.475
100.48
100.485
100.489
100.494
100.498
100.502
100.506
100.51
100.514
100.517
100.52
100.523
100.525
100.528
100.53
100.531
100.532
100.533
100.534
100.535
100.535
100.535
100.535
100.535
100.534
100.534
100.534
100.533
100.533
100.533
100.533
100.533
100.533
100.534
100.535
100.537
100.539
100.541
100.544
100.548
100.552
100.556
100.561
100.567
100.573
100.58
100.587
100.594
100.602
100.611
100.62
100.629
100.638
100.648
100.657
100.667
100.677
100.687
100.697
100.707
100.716
100.726
100.735
100.744
100.753
100.761
100.769
100.777
100.784
100.79
100.797
100.802
100.808
100.813
100.817
100.821
100.824
100.828
100.83
100.833
100.834
100.836
100.837
100.838
100.839
100.839
100.839
100.839
100.839
100.838
100.838
100.837
100.836
100.835
100.834
100.833
100.831
100.83
100.829
100.828
100.826
100.825
100.824
100.822
100.821
100.82
100.819
100.817
100.816
100.815
100.814
100.813
100.811
100.81
100.809
100.808
100.807
100.806
100.804
100.803
100.802
100.801
100.8
100.799
100.798
100.797
100.796
100.795
100.794
100.793
100.792
100.792
100.791
100.79
100.79
100.789
100.789
100.789
100.789
100.789
99.7243
99.7314
99.7426
99.7583
99.7779
99.801
99.8269
99.8551
99.8849
99.9157
99.9468
99.9778
100.008
100.037
100.064
100.09
100.113
100.133
100.151
100.166
100.178
100.188
100.195
100.201
100.205
100.209
100.212
100.216
100.221
100.228
100.238
100.249
100.263
100.28
100.299
100.319
100.341
100.364
100.387
100.409
100.43
100.449
100.466
100.48
100.491
100.498
100.502
100.502
100.499
100.493
100.484
100.473
100.461
100.447
100.433
100.419
100.405
100.391
100.378
100.367
100.356
100.346
100.338
100.33
100.323
100.317
100.312
100.308
100.304
100.302
100.3
100.299
100.299
100.299
100.3
100.302
100.304
100.306
100.308
100.31
100.312
100.315
100.317
100.319
100.322
100.325
100.328
100.332
100.336
100.34
100.345
100.35
100.356
100.361
100.367
100.373
100.379
100.384
100.39
100.396
100.401
100.407
100.412
100.418
100.423
100.428
100.433
100.438
100.443
100.448
100.454
100.459
100.464
100.468
100.473
100.478
100.483
100.488
100.492
100.497
100.501
100.505
100.509
100.513
100.516
100.52
100.523
100.526
100.528
100.53
100.532
100.534
100.535
100.536
100.537
100.537
100.538
100.538
100.538
100.538
100.538
100.537
100.537
100.537
100.537
100.537
100.537
100.537
100.538
100.539
100.54
100.542
100.544
100.546
100.549
100.553
100.557
100.561
100.566
100.572
100.578
100.585
100.592
100.6
100.608
100.616
100.625
100.634
100.644
100.653
100.663
100.673
100.683
100.693
100.703
100.712
100.722
100.732
100.741
100.75
100.758
100.766
100.774
100.781
100.788
100.794
100.8
100.806
100.811
100.815
100.819
100.822
100.825
100.828
100.83
100.832
100.833
100.834
100.834
100.835
100.835
100.834
100.834
100.833
100.832
100.831
100.829
100.828
100.827
100.825
100.823
100.822
100.82
100.819
100.817
100.815
100.814
100.812
100.811
100.809
100.808
100.807
100.805
100.804
100.803
100.802
100.801
100.8
100.799
100.798
100.797
100.796
100.795
100.794
100.793
100.792
100.792
100.791
100.79
100.789
100.789
100.788
100.787
100.787
100.786
100.785
100.785
100.784
100.784
100.784
100.783
100.783
100.783
100.783
100.782
100.782
99.7554
99.7625
99.7737
99.7895
99.8092
99.8323
99.8582
99.8863
99.9159
99.9462
99.9767
100.007
100.036
100.063
100.088
100.111
100.131
100.148
100.162
100.172
100.18
100.185
100.187
100.187
100.187
100.186
100.185
100.186
100.188
100.193
100.2
100.211
100.224
100.241
100.26
100.281
100.304
100.328
100.353
100.377
100.401
100.423
100.442
100.459
100.473
100.484
100.491
100.494
100.494
100.49
100.483
100.474
100.463
100.45
100.437
100.423
100.409
100.395
100.382
100.37
100.359
100.348
100.339
100.331
100.324
100.318
100.313
100.308
100.305
100.302
100.301
100.3
100.3
100.301
100.302
100.304
100.306
100.308
100.31
100.312
100.314
100.316
100.319
100.321
100.324