# vtk DataFile Version 2.0
HPC Tutorials: Michael Bader, Kaveh Rahnema, Oliver Meister
ASCII
DATASET RECTILINEAR_GRID
DIMENSIONS 257 257 1
X_COORDINATES 257 float
0
0.005
0.01
0.015
0.02
0.025
0.03
0.035
0.04
0.045
0.05
0.055
0.06
0.065
0.07
0.075
0.08
0.085
0.09
0.095
0.1
0.105
0.11
0.115
0.12
0.125
0.13
0.135
0.14
0.145
0.15
0.155
0.16
0.165
0.17
0.175
0.18
0.185
0.19
0.195
0.2
0.205
0.21
0.215
0.22
0.225
0.23
0.235
0.24
0.245
0.25
0.255
0.26
0.265
0.27
0.275
0.28
0.285
0.29
0.295
0.3
0.305
0.31
0.315
0.32
0.325
0.33
0.335
0.34
0.345
0.35
0.355
0.36
0.365
0.37
0.375
0.38
0.385
0.39
0.395
0.4
0.405
0.41
0.415
0.42
0.425
0.43
0.435
0.44
0.445
0.45
0.455
0.46
0.465
0.47
0.475
0.48
0.485
0.49
0.495
0.5
0.505
0.51
0.515
0.52
0.525
0.53
0.535
0.54
0.545
0.55
0.555
0.56
0.565
0.57
0.575
0.58
0.585
0.59
0.595
0.6
0.605
0.61
0.615
0.62
0.625
0.63
0.635
0.64
0.645
0.65
0.655
0.66
0.665
0.67
0.675
0.68
0.685
0.69
0.695
0.7
0.705
0.71
0.715
0.72
0.725
0.73
0.735
0.74
0.745
0.75
0.755
0.76
0.765
0.77
0.775
0.78
0.785
0.79
0.795
0.8
0.805
0.81
0.815
0.82
0.825
0.83
0.835
0.84
0.845
0.85
0.855
0.86
0.865
0.87
0.875
0.88
0.885
0.89
0.895
0.9
0.905
0.91
0.915
0.92
0.925
0.93
0.935
0.94
0.945
0.95
0.955
0.96
0.965
0.97
0.975
0.98
0.985
0.99
0.995
1
1.005
1.01
1.015
1.02
1.025
1.03
1.035
1.04
1.045
1.05
1.055
1.06
1.065
1.07
1.075
1.08
1.085
1.09
1.095
1.1
1.105
1.11
1.115
1.12
1.125
1.13
1.135
1.14
1.145
1.15
1.155
1.16
1.165
1.17
1.175
1.18
1.185
1.19
1.195
1.2
1.205
1.21
1.215
1.22
1.225
1.23
1.235
1.24
1.245
1.25
1.255
1.26
1.265
1.27
1.275
1.28
Y_COORDINATES 257 float
0
0.005
0.01
0.015
0.02
0.025
0.03
0.035
0.04
0.045
0.05
0.055
0.06
0.065
0.07
0.075
0.08
0.085
0.09
0.095
0.1
0.105
0.11
0.115
0.12
0.125
0.13
0.135
0.14
0.145
0.15
0.155
0.16
0.165
0.17
0.175
0.18
0.185
0.19
0.195
0.2
0.205
0.21
0.215
0.22
0.225
0.23
0.235
0.24
0.245
0.25
0.255
0.26
0.265
0.27
0.275
0.28
0.285
0.29
0.295
0.3
0.305
0.31
0.315
0.32
0.325
0.33
0.335
0.34
0.345
0.35
0.355
0.36
0.365
0.37
0.375
0.38
0.385
0.39
0.395
0.4
0.405
0.41
0.415
0.42
0.425
0.43
0.435
0.44
0.445
0.45
0.455
0.46
0.465
0.47
0.475
0.48
0.485
0.49
0.495
0.5
0.505
0.51
0.515
0.52
0.525
0.53
0.535
0.54
0.545
0.55
0.555
0.56
0.565
0.57
0.575
0.58
0.585
0.59
0.595
0.6
0.605
0.61
0.615
0.62
0.625
0.63
0.635
0.64
0.645
0.65
0.655
0.66
0.665
0.67
0.675
0.68
0.685
0.69
0.695
0.7
0.705
0.71
0.715
0.72
0.725
0.73
0.735
0.74
0.745
0.75
0.755
0.76
0.765
0.77
0.775
0.78
0.785
0.79
0.795
0.8
0.805
0.81
0.815
0.82
0.825
0.83
0.835
0.84
0.845
0.85
0.855
0.86
0.865
0.87
0.875
0.88
0.885
0.89
0.895
0.9
0.905
0.91
0.915
0.92
0.925
0.93
0.935
0.94
0.945
0.95
0.955
0.96
0.965
0.97
0.975
0.98
0.985
0.99
0.995
1
1.005
1.01
1.015
1.02
1.025
1.03
1.035
1.04
1.045
1.05
1.055
1.06
1.065
1.07
1.075
1.08
1.085
1.09
1.095
1.1
1.105
1.11
1.115
1.12
1.125
1.13
1.135
1.14
1.145
1.15
1.155
1.16
1.165
1.17
1.175
1.18
1.185
1.19
1.195
1.2
1.205
1.21
1.215
1.22
1.225
1.23
1.235
1.24
1.245
1.25
1.255
1.26
1.265
1.27
1.275
1.28
Z_COORDINATES 1 float
0
CELL_DATA 65536
SCALARS H float 1
LOOKUP_TABLE default
102.073
102.075
102.078
102.081
102.086
102.092
102.098
102.105
102.112
102.12
102.127
102.133
102.139
102.144
102.147
102.148
102.147
102.144
102.138
102.13
102.118
102.103
102.085
102.063
102.039
102.012
101.982
101.95
101.915
101.879
101.842
101.804
101.765
101.726
101.687
101.649
101.611
101.575
101.54
101.507
101.476
101.448
101.421
101.398
101.377
101.36
101.345
101.334
101.326
101.32
101.318
101.319
101.322
101.328
101.335
101.345
101.356
101.368
101.381
101.394
101.408
101.421
101.434
101.446
101.456
101.466
101.474
101.481
101.487
101.491
101.494
101.496
101.496
101.496
101.494
101.492
101.489
101.486
101.482
101.477
101.473
101.468
101.463
101.458
101.453
101.447
101.442
101.437
101.431
101.425
101.42
101.414
101.408
101.402
101.396
101.389
101.383
101.376
101.37
101.363
101.356
101.349
101.342
101.334
101.327
101.32
101.312
101.305
101.298
101.29
101.283
101.276
101.27
101.263
101.257
101.251
101.245
101.239
101.234
101.228
101.223
101.219
101.214
101.209
101.205
101.2
101.196
101.191
101.186
101.181
101.176
101.17
101.164
101.158
101.151
101.143
101.135
101.127
101.118
101.109
101.099
101.089
101.078
101.067
101.057
101.046
101.036
101.026
101.016
101.008
101
100.993
100.987
100.983
100.98
100.979
100.979
100.981
100.984
100.989
100.995
101.003
101.012
101.023
101.034
101.046
101.059
101.072
101.086
101.099
101.112
101.125
101.137
101.148
101.158
101.166
101.173
101.179
101.182
101.184
101.184
101.182
101.179
101.173
101.165
101.156
101.145
101.133
101.12
101.105
101.089
101.072
101.055
101.037
101.019
101
100.982
100.963
100.945
100.927
100.91
100.893
100.877
100.862
100.848
100.834
100.821
100.81
100.799
100.789
100.779
100.771
100.763
100.757
100.75
100.745
100.74
100.736
100.732
100.729
100.726
100.723
100.721
100.719
100.717
100.716
100.715
100.714
100.714
100.713
100.713
100.713
100.713
100.714
100.714
100.714
100.715
100.716
100.717
100.718
100.719
100.72
100.721
100.722
100.723
100.724
100.725
100.726
100.727
100.728
100.729
100.729
100.73
100.73
100.73
100.73
102.076
102.077
102.08
102.084
102.088
102.094
102.1
102.106
102.113
102.12
102.127
102.133
102.138
102.142
102.145
102.145
102.144
102.14
102.134
102.125
102.113
102.098
102.079
102.058
102.034
102.007
101.978
101.946
101.912
101.877
101.84
101.803
101.764
101.726
101.688
101.65
101.613
101.577
101.543
101.511
101.48
101.452
101.426
101.403
101.383
101.366
101.352
101.34
101.332
101.327
101.324
101.325
101.328
101.333
101.34
101.349
101.359
101.371
101.383
101.396
101.408
101.421
101.433
101.444
101.454
101.463
101.471
101.478
101.483
101.488
101.49
101.492
101.493
101.492
101.491
101.489
101.486
101.483
101.479
101.475
101.471
101.466
101.461
101.456
101.451
101.446
101.44
101.435
101.43
101.424
101.418
101.413
101.407
101.401
101.395
101.388
101.382
101.376
101.369
101.362
101.355
101.348
101.341
101.334
101.327
101.32
101.312
101.305
101.298
101.291
101.284
101.277
101.27
101.264
101.258
101.252
101.246
101.24
101.235
101.23
101.225
101.22
101.215
101.211
101.206
101.202
101.197
101.192
101.187
101.182
101.177
101.171
101.165
101.159
101.152
101.144
101.136
101.128
101.119
101.109
101.099
101.089
101.079
101.068
101.057
101.047
101.036
101.026
101.017
101.008
101.001
100.994
100.988
100.984
100.981
100.979
100.979
100.981
100.984
100.989
100.995
101.003
101.012
101.023
101.034
101.046
101.059
101.072
101.085
101.099
101.112
101.124
101.136
101.147
101.156
101.165
101.172
101.177
101.181
101.183
101.183
101.181
101.177
101.171
101.164
101.155
101.144
101.132
101.118
101.104
101.088
101.071
101.054
101.036
101.018
101
100.981
100.963
100.945
100.927
100.91
100.893
100.877
100.862
100.848
100.834
100.822
100.81
100.799
100.789
100.78
100.771
100.764
100.757
100.751
100.745
100.74
100.736
100.732
100.729
100.726
100.723
100.721
100.719
100.718
100.716
100.715
100.715
100.714
100.714
100.713
100.713
100.714
100.714
100.714
100.715
100.715
100.716
100.717
100.718
100.719
100.72
100.721
100.722
100.723
100.725
100.726
100.727
100.727
100.728
100.729
100.73
100.73
100.73
100.731
100.731
102.079
102.081
102.083
102.087
102.091
102.096
102.102
102.108
102.114
102.12
102.126
102.131
102.136
102.139
102.141
102.141
102.138
102.134
102.127
102.117
102.105
102.089
102.071
102.05
102.026
102
101.971
101.94
101.907
101.873
101.837
101.801
101.764
101.726
101.689
101.652
101.616
101.581
101.548
101.516
101.487
101.459
101.434
101.412
101.392
101.375
101.361
101.35
101.342
101.337
101.334
101.334
101.337
101.341
101.348
101.355
101.365
101.375
101.386
101.397
101.409
101.42
101.431
101.441
101.45
101.459
101.466
101.473
101.478
101.482
101.485
101.487
101.487
101.487
101.486
101.485
101.482
101.479
101.476
101.472
101.467
101.463
101.458
101.453
101.448
101.443
101.438
101.433
101.427
101.422
101.416
101.411
101.405
101.399
101.393
101.387
101.381
101.375
101.368
101.362
101.355
101.348
101.341
101.334
101.327
101.32
101.313
101.306
101.299
101.292
101.285
101.278
101.272
101.266
101.259
101.254
101.248
101.242
101.237
101.232
101.227
101.222
101.218
101.213
101.208
101.204
101.199
101.194
101.189
101.184
101.179
101.173
101.167
101.16
101.153
101.145
101.137
101.129
101.119
101.11
101.1
101.09
101.079
101.069
101.058
101.047
101.037
101.027
101.018
101.009
101.002
100.995
100.989
100.985
100.982
100.98
100.98
100.982
100.985
100.99
100.996
101.004
101.013
101.023
101.034
101.046
101.058
101.071
101.084
101.097
101.11
101.122
101.134
101.145
101.154
101.162
101.169
101.175
101.178
101.18
101.18
101.178
101.174
101.169
101.161
101.152
101.142
101.13
101.116
101.102
101.086
101.07
101.053
101.035
101.017
100.999
100.981
100.962
100.944
100.927
100.91
100.893
100.878
100.862
100.848
100.835
100.822
100.81
100.799
100.789
100.78
100.772
100.764
100.757
100.751
100.746
100.741
100.736
100.733
100.729
100.726
100.724
100.722
100.72
100.718
100.717
100.716
100.715
100.715
100.714
100.714
100.714
100.714
100.714
100.715
100.715
100.716
100.717
100.718
100.719
100.72
100.721
100.722
100.723
100.724
100.725
100.726
100.727
100.728
100.729
100.73
100.73
100.731
100.731
100.731
100.732
102.085
102.086
102.088
102.092
102.095
102.1
102.105
102.11
102.116
102.121
102.126
102.13
102.133
102.135
102.135
102.134
102.13
102.125
102.117
102.107
102.094
102.078
102.06
102.039
102.016
101.99
101.962
101.932
101.901
101.867
101.833
101.798
101.762
101.726
101.69
101.655
101.62
101.587
101.555
101.524
101.496
101.47
101.446
101.424
101.405
101.389
101.376
101.365
101.357
101.351
101.348
101.348
101.349
101.353
101.358
101.364
101.372
101.381
101.39
101.399
101.409
101.419
101.428
101.437
101.445
101.453
101.46
101.466
101.47
101.474
101.477
101.479
101.48
101.48
101.479
101.478
101.476
101.473
101.47
101.466
101.462
101.458
101.454
101.449
101.444
101.439
101.434
101.429
101.424
101.419
101.414
101.408
101.403
101.397
101.391
101.385
101.379
101.373
101.367
101.361
101.354
101.347
101.341
101.334
101.327
101.32
101.313
101.306
101.3
101.293
101.286
101.28
101.274
101.268
101.262
101.256
101.251
101.245
101.24
101.235
101.23
101.226
101.221
101.216
101.212
101.207
101.202
101.197
101.192
101.187
101.181
101.175
101.169
101.162
101.155
101.147
101.139
101.13
101.121
101.111
101.101
101.091
101.08
101.07
101.059
101.049
101.038
101.029
101.019
101.011
101.003
100.996
100.991
100.986
100.983
100.982
100.982
100.983
100.986
100.991
100.997
101.004
101.013
101.023
101.033
101.045
101.057
101.07
101.083
101.095
101.108
101.12
101.131
101.142
101.151
101.159
101.166
101.171
101.174
101.176
101.176
101.174
101.171
101.165
101.158
101.149
101.139
101.127
101.114
101.099
101.084
101.068
101.051
101.033
101.016
100.998
100.98
100.962
100.944
100.927
100.91
100.893
100.878
100.863
100.849
100.835
100.823
100.811
100.8
100.79
100.781
100.773
100.765
100.758
100.752
100.746
100.742
100.737
100.733
100.73
100.727
100.725
100.722
100.721
100.719
100.718
100.717
100.716
100.715
100.715
100.715
100.715
100.715
100.715
100.716
100.717
100.717
100.718
100.719
100.72
100.721
100.722
100.723
100.725
100.726
100.727
100.728
100.729
100.73
100.731
100.731
100.732
100.732
100.733
100.733
100.733
102.092
102.093
102.095
102.097
102.101
102.105
102.109
102.113
102.117
102.121
102.125
102.127
102.129
102.129
102.128
102.125
102.12
102.113
102.104
102.093
102.08
102.064
102.046
102.025
102.002
101.978
101.951
101.922
101.892
101.86
101.828
101.794
101.761
101.726
101.692
101.659
101.626
101.594
101.564
101.535
101.508
101.483
101.46
101.44
101.422
101.406
101.393
101.383
101.375
101.369
101.366
101.364
101.365
101.367
101.371
101.375
101.381
101.388
101.395
101.402
101.41
101.418
101.425
101.433
101.44
101.446
101.452
101.457
101.461
101.465
101.468
101.47
101.471
101.471
101.471
101.47
101.468
101.466
101.463
101.46
101.456
101.452
101.448
101.444
101.439
101.434
101.43
101.425
101.42
101.415
101.41
101.405
101.399
101.394
101.389
101.383
101.377
101.371
101.365
101.359
101.353
101.347
101.34
101.334
101.327
101.32
101.314
101.307
101.301
101.295
101.288
101.282
101.276
101.27
101.265
101.259
101.254
101.249
101.244
101.239
101.234
101.229
101.225
101.22
101.216
101.211
101.206
101.201
101.196
101.19
101.184
101.178
101.172
101.165
101.157
101.149
101.141
101.132
101.122
101.113
101.103
101.092
101.082
101.071
101.061
101.05
101.04
101.03
101.021
101.013
101.005
100.998
100.993
100.988
100.985
100.984
100.984
100.985
100.988
100.992
100.998
101.005
101.013
101.023
101.033
101.044
101.056
101.068
101.081
101.093
101.105
101.117
101.128
101.138
101.147
101.155
101.161
101.166
101.17
101.172
101.171
101.17
101.166
101.161
101.154
101.145
101.135
101.123
101.11
101.096
101.081
101.065
101.049
101.031
101.014
100.996
100.978
100.961
100.943
100.926
100.91
100.893
100.878
100.863
100.849
100.836
100.823
100.812
100.801
100.791
100.782
100.774
100.766
100.759
100.753
100.748
100.743
100.738
100.735
100.731
100.728
100.726
100.724
100.722
100.72
100.719
100.718
100.718
100.717
100.717
100.717
100.717
100.717
100.717
100.718
100.719
100.719
100.72
100.721
100.722
100.723
100.725
100.726
100.727
100.728
100.729
100.73
100.731
100.732
100.733
100.734
100.734
100.735
100.735
100.735
100.736
102.099
102.101
102.102
102.104
102.107
102.11
102.113
102.116
102.119
102.121
102.123
102.124
102.123
102.122
102.119
102.114
102.108
102.1
102.09
102.077
102.063
102.047
102.029
102.009
101.987
101.963
101.937
101.91
101.882
101.852
101.822
101.79
101.759
101.727
101.695
101.663
101.633
101.603
101.574
101.547
101.522
101.499
101.477
101.458
101.441
101.427
101.414
101.404
101.396
101.39
101.386
101.384
101.383
101.384
101.385
101.388
101.392
101.396
101.401
101.406
101.412
101.417
101.423
101.428
101.434
101.439
101.443
101.447
101.451
101.454
101.457
101.459
101.46
101.46
101.46
101.459
101.458
101.456
101.454
101.451
101.448
101.444
101.441
101.437
101.433
101.428
101.424
101.419
101.415
101.41
101.405
101.401
101.396
101.391
101.385
101.38
101.375
101.369
101.363
101.358
101.352
101.346
101.34
101.333
101.327
101.321
101.315
101.309
101.303
101.297
101.291
101.285
101.279
101.274
101.268
101.263
101.258
101.253
101.248
101.243
101.239
101.234
101.23
101.225
101.22
101.215
101.21
101.205
101.2
101.194
101.188
101.182
101.175
101.168
101.16
101.152
101.143
101.134
101.125
101.115
101.105
101.094
101.084
101.073
101.062
101.052
101.042
101.032
101.023
101.015
101.007
101
100.995
100.99
100.987
100.986
100.986
100.987
100.989
100.993
100.999
101.006
101.014
101.023
101.033
101.043
101.055
101.066
101.078
101.09
101.102
101.113
101.124
101.134
101.143
101.15
101.156
101.161
101.164
101.166
101.166
101.164
101.161
101.155
101.149
101.14
101.13
101.119
101.106
101.092
101.078
101.062
101.046
101.029
101.012
100.995
100.977
100.96
100.943
100.926
100.909
100.894
100.878
100.864
100.85
100.837
100.825
100.813
100.802
100.793
100.784
100.775
100.768
100.761
100.755
100.75
100.745
100.74
100.737
100.733
100.731
100.728
100.726
100.724
100.723
100.722
100.721
100.72
100.72
100.72
100.72
100.72
100.72
100.721
100.721
100.722
100.723
100.724
100.725
100.726
100.727
100.728
100.729
100.731
100.732
100.733
100.734
100.735
100.736
100.737
100.738
100.738
100.739
100.739
100.739
100.74
102.108
102.109
102.11
102.112
102.114
102.115
102.117
102.119
102.12
102.121
102.121
102.119
102.117
102.114
102.109
102.102
102.094
102.084
102.073
102.06
102.045
102.029
102.011
101.991
101.97
101.947
101.923
101.897
101.871
101.843
101.815
101.786
101.756
101.727
101.697
101.668
101.64
101.613
101.587
101.562
101.539
101.517
101.497
101.48
101.464
101.45
101.438
101.428
101.42
101.414
101.409
101.405
101.403
101.402
101.402
101.403
101.404
101.406
101.408
101.411
101.414
101.417
101.421
101.424
101.428
101.431
101.435
101.438
101.44
101.443
101.445
101.446
101.447
101.448
101.448
101.447
101.446
101.445
101.443
101.441
101.438
101.435
101.432
101.429
101.425
101.421
101.417
101.413
101.409
101.404
101.4
101.396
101.391
101.386
101.382
101.377
101.372
101.366
101.361
101.356
101.35
101.345
101.339
101.333
101.327
101.322
101.316
101.31
101.304
101.299
101.293
101.288
101.283
101.277
101.272
101.267
101.263
101.258
101.253
101.248
101.244
101.239
101.235
101.23
101.225
101.22
101.215
101.21
101.204
101.198
101.192
101.186
101.178
101.171
101.163
101.155
101.146
101.137
101.127
101.117
101.107
101.096
101.086
101.075
101.064
101.054
101.044
101.034
101.025
101.017
101.009
101.003
100.997
100.993
100.99
100.988
100.988
100.989
100.991
100.995
101
101.006
101.014
101.023
101.032
101.042
101.053
101.064
101.076
101.087
101.099
101.109
101.12
101.129
101.137
101.145
101.151
101.155
101.158
101.16
101.16
101.158
101.155
101.149
101.143
101.135
101.125
101.114
101.102
101.088
101.074
101.059
101.043
101.027
101.01
100.993
100.976
100.959
100.942
100.926
100.91
100.894
100.879
100.865
100.851
100.839
100.826
100.815
100.805
100.795
100.786
100.778
100.771
100.764
100.758
100.753
100.748
100.744
100.74
100.737
100.734
100.732
100.73
100.728
100.727
100.726
100.725
100.724
100.724
100.724
100.724
100.724
100.725
100.725
100.726
100.727
100.728
100.729
100.73
100.731
100.732
100.733
100.735
100.736
100.737
100.738
100.74
100.741
100.742
100.742
100.743
100.744
100.744
100.745
100.745
100.745
102.118
102.119
102.119
102.12
102.121
102.121
102.122
102.122
102.121
102.12
102.117
102.114
102.109
102.104
102.097
102.088
102.078
102.067
102.055
102.041
102.025
102.009
101.991
101.971
101.951
101.929
101.907
101.883
101.858
101.833
101.807
101.78
101.754
101.727
101.7
101.674
101.648
101.624
101.6
101.578
101.557
101.537
101.519
101.503
101.488
101.476
101.464
101.454
101.446
101.439
101.433
101.429
101.425
101.422
101.42
101.418
101.417
101.417
101.417
101.417
101.418
101.418
101.42
101.421
101.423
101.424
101.426
101.428
101.429
101.431
101.432
101.433
101.434
101.434
101.434
101.434
101.433
101.432
101.431
101.429
101.427
101.424
101.422
101.419
101.416
101.413
101.409
101.405
101.402
101.398
101.394
101.39
101.386
101.382
101.377
101.373
101.368
101.363
101.358
101.354
101.348
101.343
101.338
101.333
101.328
101.322
101.317
101.312
101.307
101.301
101.296
101.291
101.286
101.282
101.277
101.272
101.267
101.263
101.258
101.254
101.249
101.245
101.24
101.236
101.231
101.226
101.221
101.215
101.209
101.203
101.197
101.19
101.183
101.175
101.167
101.158
101.149
101.14
101.13
101.12
101.109
101.099
101.088
101.077
101.067
101.056
101.046
101.037
101.028
101.019
101.012
101.005
101
100.996
100.992
100.991
100.99
100.991
100.993
100.997
101.001
101.007
101.015
101.023
101.032
101.041
101.052
101.062
101.073
101.084
101.095
101.105
101.115
101.124
101.132
101.139
101.144
101.149
101.152
101.153
101.153
101.151
101.148
101.143
101.136
101.128
101.119
101.109
101.097
101.084
101.07
101.055
101.04
101.024
101.008
100.992
100.975
100.959
100.942
100.926
100.911
100.896
100.881
100.867
100.854
100.841
100.829
100.818
100.808
100.799
100.79
100.782
100.775
100.768
100.762
100.757
100.753
100.748
100.745
100.742
100.739
100.737
100.735
100.734
100.732
100.731
100.731
100.73
100.73
100.73
100.73
100.731
100.731
100.732
100.733
100.734
100.735
100.736
100.737
100.738
100.739
100.741
100.742
100.743
100.744
100.746
100.747
100.748
100.749
100.75
100.751
100.751
100.752
100.752
100.752
100.752
102.128
102.128
102.128
102.128
102.128
102.127
102.126
102.124
102.121
102.118
102.113
102.108
102.101
102.093
102.084
102.073
102.062
102.049
102.035
102.02
102.005
101.988
101.97
101.951
101.931
101.911
101.89
101.868
101.845
101.822
101.798
101.775
101.751
101.727
101.703
101.68
101.657
101.636
101.615
101.595
101.576
101.559
101.543
101.528
101.515
101.503
101.492
101.482
101.474
101.466
101.459
101.453
101.448
101.443
101.439
101.435
101.432
101.429
101.426
101.424
101.422
101.421
101.42
101.419
101.418
101.418
101.418
101.418
101.419
101.419
101.419
101.42
101.42
101.42
101.42
101.42
101.419
101.418
101.417
101.416
101.414
101.412
101.41
101.408
101.405
101.403
101.4
101.397
101.394
101.39
101.387
101.383
101.38
101.376
101.372
101.368
101.364
101.36
101.356
101.351
101.347
101.342
101.337
101.333
101.328
101.323
101.318
101.314
101.309
101.304
101.3
101.295
101.29
101.286
101.281
101.277
101.273
101.268
101.264
101.26
101.255
101.251
101.246
101.241
101.237
101.231
101.226
101.22
101.215
101.208
101.202
101.194
101.187
101.179
101.171
101.162
101.153
101.143
101.133
101.123
101.112
101.101
101.091
101.08
101.069
101.059
101.049
101.039
101.03
101.022
101.015
101.008
101.003
100.998
100.995
100.993
100.993
100.993
100.995
100.999
101.003
101.009
101.015
101.023
101.031
101.04
101.05
101.06
101.07
101.08
101.091
101.1
101.109
101.118
101.125
101.132
101.137
101.141
101.144
101.146
101.145
101.144
101.141
101.136
101.13
101.122
101.113
101.103
101.092
101.079
101.066
101.052
101.037
101.022
101.006
100.991
100.975
100.959
100.943
100.928
100.913
100.898
100.884
100.87
100.857
100.845
100.834
100.823
100.813
100.804
100.795
100.788
100.781
100.774
100.769
100.764
100.759
100.755
100.752
100.749
100.746
100.744
100.742
100.741
100.74
100.739
100.738
100.738
100.738
100.738
100.738
100.739
100.74
100.74
100.741
100.742
100.743
100.744
100.746
100.747
100.748
100.75
100.751
100.752
100.754
100.755
100.756
100.757
100.758
100.759
100.76
100.76
100.761
100.761
100.761
100.762
102.139
102.138
102.138
102.136
102.135
102.132
102.129
102.126
102.121
102.115
102.108
102.1
102.091
102.081
102.069
102.057
102.044
102.03
102.015
101.999
101.983
101.966
101.948
101.93
101.911
101.892
101.872
101.852
101.832
101.811
101.79
101.769
101.748
101.727
101.706
101.686
101.667
101.648
101.63
101.613
101.597
101.582
101.567
101.554
101.542
101.531
101.52
101.511
101.502
101.493
101.486
101.478
101.471
101.465
101.458
101.452
101.447
101.442
101.437
101.432
101.428
101.424
101.421
101.418
101.415
101.413
101.411
101.41
101.409
101.408
101.407
101.406
101.406
101.405
101.405
101.404
101.404
101.403
101.402
101.401
101.4
101.399
101.397
101.396
101.394
101.392
101.389
101.387
101.385
101.382
101.379
101.376
101.373
101.37
101.367
101.363
101.36
101.356
101.352
101.349
101.345
101.341
101.337
101.332
101.328
101.324
101.32
101.316
101.311
101.307
101.303
101.299
101.295
101.29
101.286
101.282
101.278
101.274
101.27
101.265
101.261
101.257
101.252
101.247
101.243
101.237
101.232
101.226
101.22
101.213
101.207
101.199
101.191
101.183
101.175
101.165
101.156
101.146
101.136
101.126
101.115
101.104
101.093
101.083
101.072
101.062
101.052
101.042
101.033
101.025
101.018
101.012
101.006
101.002
100.999
100.997
100.996
100.996
100.998
101.001
101.005
101.01
101.016
101.023
101.031
101.039
101.048
101.058
101.067
101.077
101.086
101.095
101.104
101.112
101.119
101.125
101.13
101.134
101.137
101.138
101.138
101.136
101.133
101.129
101.123
101.116
101.107
101.098
101.087
101.075
101.062
101.049
101.035
101.021
101.006
100.991
100.975
100.96
100.945
100.93
100.916
100.902
100.888
100.875
100.863
100.851
100.84
100.83
100.82
100.811
100.803
100.795
100.789
100.782
100.777
100.772
100.768
100.764
100.761
100.758
100.755
100.753
100.752
100.75
100.749
100.749
100.748
100.748
100.748
100.748
100.749
100.749
100.75
100.751
100.752
100.753
100.754
100.755
100.756
100.758
100.759
100.76
100.762
100.763
100.764
100.766
100.767
100.768
100.769
100.77
100.771
100.771
100.772
100.772
100.772
100.772
102.149
102.148
102.146
102.144
102.141
102.137
102.132
102.126
102.119
102.111
102.102
102.091
102.08
102.068
102.055
102.041
102.026
102.01
101.995
101.978
101.961
101.944
101.927
101.909
101.891
101.873
101.855
101.836
101.818
101.799
101.781
101.763
101.745
101.727
101.71
101.693
101.677
101.661
101.646
101.631
101.618
101.605
101.593
101.581
101.57
101.559
101.549
101.54
101.53
101.521
101.512
101.504
101.495
101.487
101.479
101.471
101.463
101.455
101.448
101.442
101.435
101.429
101.424
101.419
101.414
101.41
101.406
101.403
101.4
101.397
101.395
101.393
101.392
101.391
101.39
101.389
101.388
101.387
101.386
101.386
101.385
101.384
101.383
101.382
101.381
101.379
101.378
101.376
101.374
101.372
101.37
101.368
101.366
101.363
101.361
101.358
101.355
101.352
101.349
101.346
101.342
101.339
101.336
101.332
101.329
101.325
101.321
101.318
101.314
101.31
101.306
101.303
101.299
101.295
101.291
101.287
101.283
101.28
101.276
101.271
101.267
101.263
101.258
101.253
101.248
101.243
101.238
101.232
101.225
101.219
101.211
101.204
101.196
101.187
101.179
101.169
101.16
101.149
101.139
101.129
101.118
101.107
101.096
101.085
101.075
101.065
101.055
101.045
101.037
101.029
101.021
101.015
101.01
101.005
101.002
101
100.999
100.999
101.001
101.003
101.007
101.011
101.017
101.023
101.031
101.038
101.047
101.055
101.064
101.073
101.082
101.09
101.098
101.105
101.112
101.118
101.123
101.126
101.129
101.13
101.13
101.128
101.126
101.122
101.116
101.109
101.102
101.093
101.082
101.071
101.06
101.047
101.034
101.02
101.006
100.992
100.977
100.963
100.949
100.935
100.921
100.907
100.894
100.882
100.87
100.859
100.848
100.838
100.829
100.82
100.812
100.805
100.799
100.793
100.787
100.783
100.778
100.775
100.772
100.769
100.767
100.765
100.763
100.762
100.761
100.76
100.76
100.76
100.76
100.76
100.761
100.761
100.762
100.763
100.764
100.765
100.766
100.767
100.769
100.77
100.771
100.773
100.774
100.775
100.777
100.778
100.779
100.78
100.781
100.782
100.783
100.784
100.784
100.784
100.785
100.785
102.158
102.157
102.154
102.151
102.146
102.141
102.134
102.126
102.117
102.106
102.094
102.082
102.068
102.054
102.039
102.023
102.007
101.991
101.974
101.957
101.94
101.923
101.906
101.888
101.871
101.854
101.838
101.821
101.805
101.789
101.773
101.757
101.742
101.728
101.713
101.7
101.687
101.674
101.662
101.65
101.639
101.628
101.618
101.607
101.597
101.588
101.578
101.568
101.558
101.549
101.539
101.529
101.519
101.509
101.499
101.489
101.48
101.47
101.461
101.452
101.444
101.436
101.428
101.421
101.414
101.408
101.402
101.397
101.392
101.388
101.385
101.382
101.379
101.377
101.375
101.373
101.372
101.371
101.37
101.37
101.369
101.368
101.368
101.367
101.367
101.366
101.365
101.364
101.363
101.362
101.361
101.359
101.358
101.356
101.354
101.352
101.35
101.347
101.345
101.343
101.34
101.337
101.335
101.332
101.329
101.326
101.323
101.32
101.316
101.313
101.31
101.306
101.303
101.3
101.296
101.292
101.289
101.285
101.281
101.277
101.273
101.269
101.264
101.259
101.254
101.249
101.243
101.237
101.231
101.224
101.216
101.208
101.2
101.191
101.182
101.173
101.163
101.153
101.142
101.132
101.121
101.11
101.099
101.088
101.078
101.068
101.058
101.049
101.04
101.032
101.025
101.019
101.014
101.009
101.006
101.004
101.003
101.003
101.004
101.006
101.009
101.013
101.018
101.024
101.031
101.038
101.045
101.053
101.061
101.069
101.077
101.085
101.092
101.099
101.105
101.111
101.115
101.119
101.121
101.122
101.122
101.121
101.118
101.115
101.11
101.104
101.096
101.088
101.079
101.069
101.058
101.046
101.033
101.021
101.008
100.994
100.981
100.967
100.954
100.94
100.927
100.915
100.902
100.89
100.879
100.868
100.858
100.849
100.84
100.832
100.824
100.817
100.811
100.805
100.8
100.795
100.791
100.788
100.784
100.782
100.78
100.778
100.776
100.775
100.774
100.774
100.773
100.773
100.773
100.774
100.774
100.775
100.776
100.777
100.778
100.779
100.78
100.781
100.782
100.784
100.785
100.786
100.788
100.789
100.79
100.791
100.792
100.794
100.794
100.795
100.796
100.797
100.797
100.798
100.798
100.798
102.166
102.164
102.161
102.157
102.151
102.143
102.134
102.124
102.113
102.1
102.086
102.072
102.056
102.04
102.023
102.006
101.989
101.971
101.954
101.936
101.919
101.902
101.885
101.868
101.852
101.836
101.821
101.806
101.792
101.778
101.765
101.752
101.74
101.728
101.717
101.707
101.697
101.687
101.678
101.669
101.66
101.651
101.642
101.633
101.624
101.615
101.606
101.596
101.586
101.575
101.564
101.553
101.542
101.531
101.52
101.508
101.497
101.486
101.475
101.464
101.453
101.443
101.434
101.425
101.416
101.408
101.4
101.393
101.387
101.381
101.376
101.371
101.367
101.364
101.361
101.358
101.356
101.355
101.354
101.353
101.353
101.352
101.352
101.352
101.352
101.352
101.351
101.351
101.351
101.351
101.35
101.349
101.349
101.348
101.347
101.345
101.344
101.342
101.341
101.339
101.337
101.335
101.333
101.331
101.329
101.326
101.324
101.321
101.319
101.316
101.313
101.31
101.307
101.304
101.301
101.297
101.294
101.29
101.287
101.283
101.279
101.275
101.27
101.265
101.26
101.254
101.249
101.242
101.236
101.228
101.221
101.213
101.204
101.195
101.186
101.176
101.166
101.156
101.145
101.134
101.123
101.113
101.102
101.091
101.081
101.071
101.061
101.052
101.044
101.036
101.029
101.023
101.018
101.014
101.01
101.008
101.007
101.007
101.007
101.009
101.012
101.016
101.02
101.025
101.031
101.037
101.044
101.051
101.058
101.066
101.073
101.08
101.087
101.093
101.099
101.104
101.108
101.111
101.113
101.115
101.115
101.114
101.112
101.108
101.104
101.099
101.092
101.084
101.076
101.067
101.057
101.046
101.034
101.023
101.01
100.998
100.986
100.973
100.96
100.948
100.936
100.924
100.912
100.901
100.89
100.88
100.87
100.861
100.853
100.845
100.837
100.831
100.824
100.819
100.814
100.809
100.805
100.802
100.799
100.796
100.794
100.792
100.791
100.79
100.789
100.788
100.788
100.788
100.788
100.788
100.788
100.789
100.79
100.791
100.792
100.793
100.794
100.795
100.796
100.798
100.799
100.8
100.801
100.803
100.804
100.805
100.806
100.807
100.808
100.809
100.809
100.81
100.81
100.811
100.811
100.811
102.173
102.17
102.166
102.161
102.153
102.144
102.133
102.121
102.108
102.093
102.077
102.06
102.043
102.025
102.007
101.989
101.97
101.952
101.934
101.916
101.898
101.882
101.865
101.849
101.834
101.819
101.806
101.792
101.78
101.769
101.758
101.748
101.738
101.729
101.721
101.714
101.707
101.7
101.693
101.686
101.68
101.673
101.665
101.658
101.65
101.641
101.632
101.622
101.611
101.601
101.589
101.577
101.565
101.553
101.54
101.527
101.514
101.502
101.489
101.477
101.464
101.453
101.441
101.43
101.419
101.409
101.4
101.391
101.383
101.375
101.368
101.362
101.357
101.352
101.348
101.344
101.342
101.34
101.338
101.337
101.336
101.336
101.336
101.336
101.336
101.336
101.337
101.337
101.338
101.338
101.338
101.339