# vtk DataFile Version 2.0
HPC Tutorials: Michael Bader, Kaveh Rahnema, Oliver Meister
ASCII
DATASET RECTILINEAR_GRID
DIMENSIONS 257 257 1
X_COORDINATES 257 float
0
0.005
0.01
0.015
0.02
0.025
0.03
0.035
0.04
0.045
0.05
0.055
0.06
0.065
0.07
0.075
0.08
0.085
0.09
0.095
0.1
0.105
0.11
0.115
0.12
0.125
0.13
0.135
0.14
0.145
0.15
0.155
0.16
0.165
0.17
0.175
0.18
0.185
0.19
0.195
0.2
0.205
0.21
0.215
0.22
0.225
0.23
0.235
0.24
0.245
0.25
0.255
0.26
0.265
0.27
0.275
0.28
0.285
0.29
0.295
0.3
0.305
0.31
0.315
0.32
0.325
0.33
0.335
0.34
0.345
0.35
0.355
0.36
0.365
0.37
0.375
0.38
0.385
0.39
0.395
0.4
0.405
0.41
0.415
0.42
0.425
0.43
0.435
0.44
0.445
0.45
0.455
0.46
0.465
0.47
0.475
0.48
0.485
0.49
0.495
0.5
0.505
0.51
0.515
0.52
0.525
0.53
0.535
0.54
0.545
0.55
0.555
0.56
0.565
0.57
0.575
0.58
0.585
0.59
0.595
0.6
0.605
0.61
0.615
0.62
0.625
0.63
0.635
0.64
0.645
0.65
0.655
0.66
0.665
0.67
0.675
0.68
0.685
0.69
0.695
0.7
0.705
0.71
0.715
0.72
0.725
0.73
0.735
0.74
0.745
0.75
0.755
0.76
0.765
0.77
0.775
0.78
0.785
0.79
0.795
0.8
0.805
0.81
0.815
0.82
0.825
0.83
0.835
0.84
0.845
0.85
0.855
0.86
0.865
0.87
0.875
0.88
0.885
0.89
0.895
0.9
0.905
0.91
0.915
0.92
0.925
0.93
0.935
0.94
0.945
0.95
0.955
0.96
0.965
0.97
0.975
0.98
0.985
0.99
0.995
1
1.005
1.01
1.015
1.02
1.025
1.03
1.035
1.04
1.045
1.05
1.055
1.06
1.065
1.07
1.075
1.08
1.085
1.09
1.095
1.1
1.105
1.11
1.115
1.12
1.125
1.13
1.135
1.14
1.145
1.15
1.155
1.16
1.165
1.17
1.175
1.18
1.185
1.19
1.195
1.2
1.205
1.21
1.215
1.22
1.225
1.23
1.235
1.24
1.245
1.25
1.255
1.26
1.265
1.27
1.275
1.28
Y_COORDINATES 257 float
0
0.005
0.01
0.015
0.02
0.025
0.03
0.035
0.04
0.045
0.05
0.055
0.06
0.065
0.07
0.075
0.08
0.085
0.09
0.095
0.1
0.105
0.11
0.115
0.12
0.125
0.13
0.135
0.14
0.145
0.15
0.155
0.16
0.165
0.17
0.175
0.18
0.185
0.19
0.195
0.2
0.205
0.21
0.215
0.22
0.225
0.23
0.235
0.24
0.245
0.25
0.255
0.26
0.265
0.27
0.275
0.28
0.285
0.29
0.295
0.3
0.305
0.31
0.315
0.32
0.325
0.33
0.335
0.34
0.345
0.35
0.355
0.36
0.365
0.37
0.375
0.38
0.385
0.39
0.395
0.4
0.405
0.41
0.415
0.42
0.425
0.43
0.435
0.44
0.445
0.45
0.455
0.46
0.465
0.47
0.475
0.48
0.485
0.49
0.495
0.5
0.505
0.51
0.515
0.52
0.525
0.53
0.535
0.54
0.545
0.55
0.555
0.56
0.565
0.57
0.575
0.58
0.585
0.59
0.595
0.6
0.605
0.61
0.615
0.62
0.625
0.63
0.635
0.64
0.645
0.65
0.655
0.66
0.665
0.67
0.675
0.68
0.685
0.69
0.695
0.7
0.705
0.71
0.715
0.72
0.725
0.73
0.735
0.74
0.745
0.75
0.755
0.76
0.765
0.77
0.775
0.78
0.785
0.79
0.795
0.8
0.805
0.81
0.815
0.82
0.825
0.83
0.835
0.84
0.845
0.85
0.855
0.86
0.865
0.87
0.875
0.88
0.885
0.89
0.895
0.9
0.905
0.91
0.915
0.92
0.925
0.93
0.935
0.94
0.945
0.95
0.955
0.96
0.965
0.97
0.975
0.98
0.985
0.99
0.995
1
1.005
1.01
1.015
1.02
1.025
1.03
1.035
1.04
1.045
1.05
1.055
1.06
1.065
1.07
1.075
1.08
1.085
1.09
1.095
1.1
1.105
1.11
1.115
1.12
1.125
1.13
1.135
1.14
1.145
1.15
1.155
1.16
1.165
1.17
1.175
1.18
1.185
1.19
1.195
1.2
1.205
1.21
1.215
1.22
1.225
1.23
1.235
1.24
1.245
1.25
1.255
1.26
1.265
1.27
1.275
1.28
Z_COORDINATES 1 float
0
CELL_DATA 65536
SCALARS H float 1
LOOKUP_TABLE default
99.6679
99.6679
99.6676
99.6671
99.6665
99.6657
99.6648
99.664
99.6633
99.6628
99.6627
99.6632
99.6643
99.6661
99.6689
99.673
99.6785
99.6859
99.6956
99.7079
99.7234
99.7425
99.7656
99.793
99.8249
99.8614
99.9024
99.9476
99.9967
100.049
100.105
100.163
100.222
100.282
100.343
100.402
100.461
100.517
100.57
100.619
100.663
100.702
100.734
100.76
100.778
100.788
100.791
100.786
100.775
100.756
100.732
100.703
100.67
100.634
100.596
100.557
100.519
100.481
100.444
100.41
100.378
100.348
100.321
100.297
100.276
100.258
100.244
100.232
100.223
100.216
100.212
100.21
100.209
100.21
100.212
100.215
100.219
100.223
100.227
100.231
100.235
100.239
100.243
100.247
100.25
100.254
100.258
100.261
100.265
100.268
100.271
100.275
100.278
100.281
100.284
100.287
100.291
100.294
100.297
100.3
100.304
100.308
100.311
100.315
100.32
100.324
100.329
100.334
100.339
100.344
100.349
100.355
100.361
100.367
100.372
100.378
100.384
100.39
100.396
100.402
100.407
100.413
100.418
100.423
100.428
100.432
100.437
100.441
100.445
100.449
100.452
100.456
100.459
100.462
100.464
100.467
100.469
100.471
100.473
100.474
100.476
100.477
100.478
100.479
100.479
100.48
100.48
100.48
100.48
100.48
100.48
100.48
100.48
100.48
100.48
100.48
100.48
100.481
100.482
100.483
100.485
100.487
100.49
100.494
100.498
100.502
100.507
100.513
100.52
100.527
100.535
100.543
100.552
100.562
100.572
100.583
100.594
100.606
100.617
100.63
100.642
100.655
100.667
100.68
100.692
100.705
100.717
100.729
100.741
100.753
100.764
100.775
100.785
100.795
100.805
100.814
100.823
100.831
100.839
100.846
100.853
100.859
100.865
100.87
100.875
100.88
100.884
100.888
100.891
100.894
100.897
100.9
100.902
100.904
100.905
100.906
100.907
100.908
100.909
100.909
100.909
100.909
100.909
100.909
100.908
100.907
100.906
100.905
100.904
100.903
100.902
100.9
100.899
100.897
100.896
100.894
100.893
100.891
100.89
100.888
100.887
100.885
100.884
100.883
100.881
100.88
100.879
100.878
100.877
100.876
100.876
100.875
100.875
100.874
100.874
100.874
99.6694
99.6694
99.669
99.6684
99.6677
99.6668
99.6658
99.6649
99.6641
99.6636
99.6635
99.664
99.6651
99.667
99.67
99.6742
99.6799
99.6875
99.6974
99.71
99.7258
99.7452
99.7685
99.7961
99.8281
99.8646
99.9055
99.9506
99.9995
100.052
100.107
100.164
100.223
100.282
100.341
100.4
100.458
100.513
100.565
100.613
100.656
100.694
100.726
100.751
100.768
100.779
100.782
100.777
100.766
100.748
100.725
100.697
100.665
100.63
100.593
100.555
100.518
100.48
100.445
100.41
100.379
100.349
100.322
100.299
100.278
100.26
100.245
100.233
100.224
100.218
100.213
100.211
100.211
100.212
100.214
100.217
100.22
100.224
100.228
100.233
100.237
100.241
100.245
100.249
100.253
100.257
100.26
100.264
100.268
100.271
100.275
100.278
100.282
100.285
100.288
100.292
100.295
100.298
100.302
100.305
100.309
100.313
100.317
100.321
100.325
100.33
100.334
100.339
100.345
100.35
100.355
100.361
100.367
100.373
100.379
100.385
100.391
100.396
100.402
100.408
100.413
100.419
100.424
100.429
100.434
100.438
100.443
100.447
100.451
100.455
100.458
100.461
100.464
100.467
100.47
100.472
100.474
100.476
100.478
100.48
100.481
100.482
100.483
100.484
100.485
100.485
100.485
100.486
100.486
100.486
100.486
100.485
100.485
100.485
100.485
100.486
100.486
100.487
100.488
100.49
100.492
100.494
100.497
100.5
100.504
100.509
100.514
100.52
100.527
100.534
100.542
100.551
100.56
100.569
100.58
100.59
100.601
100.613
100.625
100.637
100.649
100.661
100.674
100.686
100.698
100.711
100.723
100.735
100.746
100.757
100.768
100.779
100.789
100.798
100.807
100.816
100.824
100.832
100.839
100.846
100.852
100.858
100.863
100.868
100.872
100.876
100.88
100.883
100.886
100.889
100.891
100.893
100.895
100.897
100.898
100.899
100.9
100.9
100.9
100.901
100.901
100.9
100.9
100.899
100.899
100.898
100.897
100.896
100.895
100.894
100.893
100.891
100.89
100.889
100.887
100.886
100.885
100.883
100.882
100.88
100.879
100.878
100.877
100.875
100.874
100.873
100.872
100.871
100.871
100.87
100.869
100.869
100.868
100.868
100.868
100.868
99.6718
99.6717
99.6712
99.6706
99.6696
99.6686
99.6674
99.6664
99.6654
99.6648
99.6647
99.6651
99.6662
99.6683
99.6714
99.6758
99.6819
99.6899
99.7002
99.7132
99.7295
99.7492
99.7729
99.8008
99.833
99.8696
99.9105
99.9553
100.004
100.056
100.11
100.166
100.224
100.282
100.34
100.397
100.453
100.507
100.557
100.603
100.645
100.682
100.712
100.736
100.753
100.763
100.766
100.762
100.752
100.735
100.713
100.687
100.656
100.623
100.588
100.552
100.516
100.48
100.445
100.412
100.38
100.352
100.325
100.302
100.281
100.264
100.249
100.237
100.228
100.221
100.217
100.214
100.214
100.215
100.217
100.22
100.223
100.227
100.231
100.236
100.24
100.244
100.249
100.253
100.257
100.261
100.266
100.27
100.273
100.277
100.281
100.285
100.288
100.292
100.296
100.299
100.303
100.306
100.31
100.313
100.317
100.321
100.325
100.329
100.334
100.339
100.343
100.349
100.354
100.359
100.365
100.371
100.376
100.382
100.388
100.394
100.4
100.406
100.412
100.417
100.423
100.428
100.433
100.438
100.443
100.447
100.452
100.456
100.46
100.463
100.467
100.47
100.473
100.476
100.478
100.481
100.483
100.485
100.486
100.488
100.489
100.49
100.491
100.492
100.493
100.493
100.493
100.494
100.494
100.494
100.494
100.494
100.494
100.494
100.494
100.494
100.495
100.496
100.497
100.499
100.501
100.504
100.507
100.51
100.515
100.52
100.525
100.531
100.538
100.545
100.553
100.562
100.571
100.581
100.591
100.602
100.613
100.624
100.636
100.647
100.659
100.672
100.684
100.696
100.708
100.719
100.731
100.742
100.753
100.764
100.774
100.784
100.793
100.802
100.81
100.818
100.826
100.833
100.839
100.845
100.85
100.855
100.86
100.864
100.868
100.871
100.874
100.877
100.879
100.881
100.883
100.885
100.886
100.887
100.888
100.888
100.889
100.889
100.889
100.889
100.888
100.888
100.887
100.887
100.886
100.885
100.884
100.883
100.882
100.881
100.88
100.879
100.878
100.877
100.876
100.874
100.873
100.872
100.871
100.87
100.869
100.868
100.867
100.866
100.865
100.864
100.864
100.863
100.862
100.862
100.861
100.861
100.861
100.86
100.86
100.86
99.6752
99.675
99.6744
99.6735
99.6724
99.6711
99.6698
99.6685
99.6674
99.6666
99.6664
99.6668
99.668
99.6702
99.6736
99.6784
99.6848
99.6933
99.7042
99.7179
99.7347
99.7551
99.7793
99.8076
99.8401
99.8768
99.9176
99.9621
100.01
100.061
100.114
100.169
100.225
100.282
100.338
100.393
100.447
100.498
100.546
100.59
100.63
100.665
100.693
100.716
100.732
100.742
100.745
100.742
100.732
100.717
100.697
100.673
100.645
100.614
100.581
100.547
100.513
100.479
100.446
100.414
100.383
100.355
100.33
100.307
100.286
100.269
100.254
100.242
100.233
100.226
100.222
100.219
100.219
100.219
100.221
100.224
100.228
100.232
100.236
100.24
100.245
100.25
100.254
100.259
100.264
100.268
100.273
100.277
100.281
100.285
100.289
100.293
100.297
100.301
100.305
100.309
100.313
100.316
100.32
100.324
100.328
100.332
100.337
100.341
100.346
100.351
100.356
100.361
100.366
100.372
100.377
100.383
100.389
100.395
100.401
100.407
100.413
100.419
100.424
100.43
100.435
100.44
100.445
100.45
100.455
100.459
100.463
100.467
100.471
100.475
100.478
100.481
100.484
100.486
100.489
100.491
100.493
100.495
100.497
100.498
100.5
100.501
100.502
100.502
100.503
100.503
100.504
100.504
100.504
100.504
100.504
100.504
100.504
100.505
100.505
100.506
100.506
100.508
100.509
100.511
100.513
100.516
100.52
100.523
100.528
100.533
100.539
100.545
100.552
100.56
100.568
100.576
100.586
100.595
100.605
100.616
100.627
100.638
100.649
100.661
100.673
100.684
100.696
100.707
100.719
100.73
100.741
100.752
100.762
100.772
100.781
100.79
100.799
100.807
100.814
100.821
100.828
100.834
100.839
100.844
100.849
100.853
100.857
100.86
100.863
100.865
100.867
100.869
100.871
100.872
100.873
100.874
100.874
100.875
100.875
100.875
100.875
100.875
100.874
100.874
100.873
100.873
100.872
100.871
100.87
100.869
100.868
100.868
100.867
100.866
100.865
100.864
100.863
100.862
100.861
100.86
100.86
100.859
100.858
100.857
100.857
100.856
100.855
100.855
100.854
100.854
100.853
100.853
100.853
100.852
100.852
100.852
100.852
100.852
100.852
100.851
99.6795
99.6791
99.6784
99.6773
99.6759
99.6743
99.6727
99.6712
99.6699
99.669
99.6686
99.6691
99.6704
99.6728
99.6765
99.6817
99.6887
99.6979
99.7095
99.7239
99.7415
99.7626
99.7875
99.8163
99.8492
99.886
99.9266
99.9707
100.018
100.068
100.12
100.173
100.227
100.281
100.335
100.388
100.439
100.487
100.532
100.574
100.611
100.643
100.67
100.691
100.706
100.716
100.719
100.716
100.708
100.695
100.678
100.656
100.631
100.603
100.573
100.542
100.51
100.478
100.447
100.417
100.388
100.361
100.336
100.313
100.293
100.276
100.262
100.25
100.241
100.234
100.229
100.226
100.225
100.226
100.227
100.23
100.233
100.237
100.242
100.246
100.251
100.256
100.261
100.266
100.271
100.276
100.281
100.286
100.291
100.295
100.3
100.304
100.308
100.312
100.316
100.32
100.325
100.329
100.333
100.337
100.341
100.345
100.35
100.355
100.359
100.364
100.37
100.375
100.38
100.386
100.392
100.398
100.404
100.41
100.416
100.421
100.427
100.433
100.439
100.444
100.449
100.454
100.459
100.464
100.468
100.473
100.477
100.48
100.484
100.487
100.49
100.493
100.496
100.499
100.501
100.503
100.505
100.507
100.508
100.51
100.511
100.512
100.513
100.514
100.514
100.515
100.515
100.515
100.516
100.516
100.516
100.516
100.516
100.517
100.517
100.518
100.519
100.521
100.523
100.525
100.527
100.53
100.534
100.538
100.543
100.548
100.554
100.561
100.568
100.575
100.584
100.592
100.602
100.611
100.621
100.632
100.642
100.653
100.664
100.675
100.687
100.698
100.709
100.72
100.731
100.741
100.751
100.761
100.771
100.78
100.788
100.797
100.804
100.811
100.818
100.824
100.829
100.835
100.839
100.843
100.847
100.85
100.853
100.855
100.857
100.859
100.86
100.861
100.862
100.862
100.862
100.863
100.862
100.862
100.862
100.861
100.861
100.86
100.859
100.858
100.858
100.857
100.856
100.855
100.854
100.853
100.852
100.851
100.85
100.85
100.849
100.848
100.848
100.847
100.847
100.846
100.846
100.845
100.845
100.845
100.844
100.844
100.844
100.844
100.844
100.844
100.844
100.844
100.844
100.843
100.843
100.843
100.843
100.843
100.843
100.844
99.6844
99.684
99.683
99.6817
99.6801
99.6782
99.6763
99.6745
99.673
99.6719
99.6715
99.672
99.6734
99.6761
99.6802
99.6859
99.6936
99.7035
99.716
99.7313
99.7498
99.7718
99.7974
99.8268
99.86
99.897
99.9374
99.9809
100.027
100.076
100.126
100.177
100.229
100.281
100.332
100.381
100.429
100.474
100.516
100.554
100.588
100.617
100.642
100.662
100.676
100.685
100.688
100.687
100.68
100.67
100.655
100.636
100.614
100.59
100.564
100.536
100.507
100.478
100.449
100.421
100.393
100.368
100.344
100.322
100.303
100.286
100.271
100.26
100.25
100.243
100.238
100.235
100.234
100.234
100.235
100.238
100.241
100.245
100.249
100.254
100.259
100.264
100.269
100.275
100.28
100.285
100.291
100.296
100.301
100.306
100.311
100.315
100.32
100.324
100.329
100.333
100.337
100.342
100.346
100.35
100.355
100.359
100.364
100.369
100.374
100.379
100.385
100.39
100.396
100.401
100.407
100.413
100.419
100.425
100.431
100.437
100.443
100.448
100.454
100.459
100.464
100.469
100.474
100.478
100.482
100.487
100.49
100.494
100.497
100.5
100.503
100.506
100.509
100.511
100.513
100.515
100.517
100.519
100.52
100.522
100.523
100.524
100.524
100.525
100.526
100.526
100.527
100.527
100.527
100.528
100.528
100.528
100.529
100.53
100.53
100.531
100.533
100.535
100.537
100.539
100.542
100.545
100.549
100.554
100.559
100.564
100.57
100.577
100.584
100.592
100.6
100.608
100.618
100.627
100.637
100.647
100.657
100.668
100.679
100.689
100.7
100.711
100.721
100.732
100.742
100.751
100.761
100.77
100.779
100.787
100.795
100.802
100.809
100.815
100.821
100.826
100.831
100.835
100.839
100.842
100.845
100.847
100.849
100.85
100.852
100.853
100.853
100.853
100.853
100.853
100.853
100.852
100.852
100.851
100.85
100.849
100.848
100.847
100.845
100.844
100.843
100.842
100.841
100.84
100.839
100.838
100.837
100.836
100.836
100.835
100.835
100.834
100.834
100.833
100.833
100.833
100.833
100.833
100.833
100.834
100.834
100.834
100.834
100.835
100.835
100.835
100.836
100.836
100.836
100.837
100.837
100.837
100.837
100.837
100.837
100.838
99.69
99.6895
99.6883
99.6867
99.6848
99.6826
99.6804
99.6784
99.6767
99.6755
99.6751
99.6756
99.6773
99.6803
99.6848
99.6912
99.6996
99.7104
99.7238
99.7402
99.7597
99.7826
99.8091
99.8391
99.8727
99.9097
99.9498
99.9927
100.038
100.085
100.133
100.182
100.231
100.28
100.327
100.373
100.417
100.458
100.496
100.531
100.562
100.588
100.611
100.628
100.642
100.65
100.654
100.654
100.65
100.641
100.629
100.614
100.596
100.576
100.553
100.529
100.504
100.478
100.452
100.426
100.401
100.376
100.354
100.333
100.314
100.298
100.283
100.272
100.262
100.255
100.249
100.246
100.244
100.244
100.245
100.247
100.249
100.253
100.257
100.262
100.267
100.272
100.278
100.284
100.289
100.295
100.301
100.306
100.312
100.317
100.322
100.327
100.332
100.337
100.341
100.346
100.35
100.355
100.359
100.364
100.369
100.374
100.378
100.383
100.389
100.394
100.399
100.405
100.411
100.417
100.422
100.428
100.434
100.44
100.446
100.452
100.457
100.463
100.468
100.474
100.479
100.483
100.488
100.492
100.496
100.5
100.504
100.507
100.51
100.513
100.516
100.518
100.521
100.523
100.525
100.527
100.528
100.53
100.531
100.533
100.534
100.535
100.535
100.536
100.537
100.537
100.538
100.538
100.539
100.539
100.54
100.54
100.541
100.542
100.543
100.544
100.546
100.548
100.55
100.553
100.556
100.56
100.564
100.568
100.574
100.579
100.585
100.592
100.599
100.607
100.615
100.623
100.632
100.641
100.651
100.661
100.671
100.681
100.691
100.701
100.711
100.721
100.731
100.741
100.75
100.759
100.768
100.777
100.785
100.792
100.799
100.806
100.812
100.818
100.823
100.827
100.831
100.835
100.838
100.84
100.843
100.844
100.846
100.847
100.847
100.847
100.847
100.847
100.847
100.846
100.845
100.844
100.843
100.842
100.84
100.839
100.837
100.836
100.835
100.833
100.832
100.83
100.829
100.828
100.827
100.826
100.825
100.824
100.824
100.823
100.823
100.823
100.823
100.823
100.823
100.823
100.824
100.824
100.825
100.825
100.826
100.827
100.827
100.828
100.829
100.83
100.83
100.831
100.832
100.832
100.833
100.833
100.834
100.834
100.834
100.834
99.6961
99.6954
99.6941
99.6922
99.69
99.6876
99.6851
99.6829
99.681
99.6798
99.6794
99.68
99.682
99.6854
99.6905
99.6976
99.7068
99.7186
99.7331
99.7505
99.7711
99.7951
99.8224
99.8531
99.887
99.924
99.9637
100.006
100.05
100.095
100.141
100.187
100.233
100.278
100.322
100.364
100.404
100.441
100.475
100.506
100.533
100.557
100.576
100.592
100.605
100.613
100.618
100.619
100.616
100.611
100.602
100.591
100.577
100.561
100.543
100.523
100.501
100.479
100.456
100.432
100.409
100.387
100.366
100.346
100.328
100.312
100.298
100.286
100.276
100.268
100.263
100.258
100.256
100.255
100.255
100.257
100.259
100.262
100.266
100.271
100.276
100.281
100.287
100.293
100.299
100.305
100.311
100.316
100.322
100.328
100.333
100.338
100.343
100.348
100.353
100.358
100.363
100.367
100.372
100.377
100.382
100.387
100.392
100.397
100.402
100.408
100.413
100.419
100.425
100.431
100.436
100.442
100.448
100.454
100.46
100.466
100.471
100.477
100.482
100.487
100.492
100.496
100.501
100.505
100.509
100.512
100.516
100.519
100.522
100.524
100.527
100.529
100.532
100.534
100.535
100.537
100.539
100.54
100.541
100.542
100.544
100.544
100.545
100.546
100.547
100.547
100.548
100.549
100.549
100.55
100.551
100.552
100.553
100.554
100.555
100.557
100.559
100.561
100.563
100.566
100.569
100.573
100.577
100.582
100.587
100.593
100.599
100.605
100.612
100.62
100.627
100.636
100.644
100.653
100.662
100.671
100.681
100.69
100.7
100.71
100.719
100.729
100.738
100.747
100.756
100.764
100.772
100.78
100.788
100.795
100.801
100.807
100.813
100.818
100.823
100.827
100.831
100.834
100.836
100.839
100.841
100.842
100.843
100.844
100.844
100.844
100.844
100.843
100.842
100.841
100.84
100.839
100.837
100.836
100.834
100.833
100.831
100.829
100.827
100.826
100.824
100.823
100.821
100.82
100.819
100.818
100.817
100.816
100.816
100.816
100.815
100.815
100.815
100.816
100.816
100.817
100.817
100.818
100.819
100.82
100.821
100.822
100.824
100.825
100.826
100.827
100.828
100.829
100.83
100.831
100.832
100.832
100.833
100.833
100.833
100.834
99.7025
99.7017
99.7002
99.6982
99.6957
99.6931
99.6904
99.688
99.686
99.6848
99.6845
99.6854
99.6877
99.6916
99.6973
99.7052
99.7154
99.7282
99.7438
99.7624
99.7841
99.8091
99.8373
99.8686
99.9029
99.9398
99.979
100.02
100.062
100.106
100.149
100.192
100.235
100.276
100.316
100.354
100.389
100.422
100.452
100.479
100.502
100.523
100.54
100.554
100.566
100.574
100.579
100.582
100.582
100.579
100.575
100.567
100.558
100.546
100.532
100.516
100.499
100.48
100.46
100.44
100.419
100.399
100.379
100.361
100.344
100.328
100.314
100.302
100.292
100.284
100.277
100.273
100.269
100.268
100.267
100.268
100.27
100.272
100.276
100.28
100.285
100.29
100.296
100.302
100.308
100.314
100.32
100.326
100.331
100.337
100.343
100.348
100.353
100.358
100.364
100.368
100.373
100.378
100.383
100.388
100.393
100.398
100.404
100.409
100.414
100.42
100.425
100.431
100.437
100.443
100.449
100.455
100.46
100.466
100.472
100.478
100.483
100.488
100.493
100.498
100.503
100.507
100.512
100.515
100.519
100.523
100.526
100.529
100.532
100.534
100.536
100.539
100.541
100.543
100.544
100.546
100.547
100.549
100.55
100.551
100.552
100.553
100.554
100.555
100.556
100.556
100.557
100.558
100.559
100.56
100.561
100.562
100.563
100.564
100.566
100.568
100.57
100.572
100.575
100.578
100.581
100.585
100.589
100.594
100.599
100.604
100.61
100.616
100.623
100.63
100.637
100.645
100.653
100.661
100.67
100.679
100.687
100.696
100.705
100.714
100.723
100.732
100.741
100.749
100.758
100.766
100.773
100.781
100.788
100.794
100.801
100.806
100.812
100.817
100.821
100.825
100.829
100.832
100.835
100.837
100.839
100.84
100.841
100.842
100.842
100.842
100.842
100.841
100.84
100.839
100.838
100.837
100.835
100.833
100.832
100.83
100.828
100.826
100.824
100.823
100.821
100.819
100.818
100.817
100.815
100.814
100.813
100.813
100.812
100.812
100.812
100.812
100.812
100.812
100.813
100.814
100.815
100.816
100.817
100.818
100.82
100.821
100.823
100.824
100.825
100.827
100.828
100.83
100.831
100.832
100.833
100.834
100.834
100.835
100.835
100.835
99.7092
99.7084
99.7067
99.7045
99.7018
99.699
99.6962
99.6937
99.6918
99.6907
99.6906
99.6918
99.6945
99.699
99.7055
99.7142
99.7254
99.7393
99.7561
99.7759
99.7988
99.8248
99.8538
99.8857
99.9202
99.9568
99.9953
100.035
100.076
100.117
100.157
100.198
100.236
100.274
100.309
100.342
100.373
100.401
100.427
100.45
100.47
100.487
100.502
100.515
100.525
100.534
100.54
100.544
100.547
100.548
100.546
100.543
100.538
100.53
100.521
100.51
100.496
100.482
100.465
100.448
100.43
100.412
100.395
100.377
100.361
100.346
100.333
100.32
100.31
100.301
100.294
100.288
100.284
100.281
100.28
100.28
100.281
100.283
100.286
100.289
100.294
100.299
100.304
100.31
100.316
100.322
100.328
100.334
100.339
100.345
100.351
100.356
100.362
100.367
100.372
100.377
100.382
100.387
100.392
100.398
100.403
100.408
100.413
100.419
100.424
100.43
100.436
100.441
100.447
100.453
100.459
100.465
100.471
100.476
100.482
100.487
100.493
100.498
100.503
100.508
100.512
100.516
100.52
100.524
100.528
100.531
100.534
100.537
100.539
100.542
100.544
100.546
100.548
100.55
100.551
100.553
100.554
100.556
100.557
100.558
100.559
100.56
100.561
100.562
100.563
100.564
100.565
100.566
100.568
100.569
100.57
100.571
100.573
100.574
100.576
100.578
100.58
100.583
100.586
100.589
100.592
100.596
100.6
100.604
100.609
100.614
100.619
100.625
100.631
100.638
100.644
100.652
100.659
100.666
100.674
100.682
100.69
100.699
100.707
100.715
100.724
100.732
100.74
100.748
100.756
100.764
100.771
100.778
100.785
100.791
100.798
100.803
100.809
100.814
100.818
100.822
100.826
100.829
100.832
100.835
100.837
100.838
100.84
100.841
100.841
100.841
100.841
100.841
100.84
100.839
100.838
100.837
100.836
100.834
100.832
100.831
100.829
100.827
100.825
100.823
100.821
100.82
100.818
100.817
100.815
100.814
100.813
100.813
100.812
100.812
100.812
100.812
100.812
100.812
100.813
100.814
100.815
100.816
100.818
100.819
100.82
100.822
100.824
100.825
100.827
100.828
100.83
100.831
100.833
100.834
100.835
100.836
100.836
100.837
100.837
100.837
99.7161
99.7152
99.7134
99.7111
99.7083
99.7054
99.7026
99.7002
99.6984
99.6974
99.6977
99.6993
99.7026
99.7078
99.7151
99.7247
99.737
99.752
99.77
99.791
99.815
99.842
99.8718
99.9042
99.9387
99.975
100.013
100.051
100.09
100.128
100.166
100.202
100.237
100.27
100.301
100.33
100.356
100.38
100.401
100.42
100.437
100.451
100.464
100.475
100.485
100.493
100.501
100.507
100.512
100.516
100.518
100.519
100.518
100.515
100.51
100.503
100.494
100.483
100.471
100.457
100.442
100.426
100.411
100.395
100.38
100.365
100.352
100.34
100.329
100.32
100.311
100.305
100.299
100.296
100.293
100.292
100.292
100.293
100.295
100.298
100.302
100.306
100.311
100.317
100.322
100.328
100.334
100.34
100.346
100.351
100.357
100.363
100.368
100.373
100.379
100.384
100.389
100.394
100.399
100.405
100.41
100.415
100.421
100.426
100.432
100.438
100.443
100.449
100.455
100.461
100.467
100.473
100.478
100.484
100.489
100.495
100.5
100.505
100.51
100.515
100.519
100.523
100.527
100.531
100.534
100.537
100.54
100.543
100.545
100.548
100.55
100.552
100.553
100.555
100.557
100.558
100.56
100.561
100.563
100.564
100.565
100.566
100.568
100.569
100.57
100.572
100.573
100.574
100.576
100.577
100.578
100.58
100.582
100.584
100.585
100.588
100.59
100.592
100.595
100.598
100.601
100.604
100.608
100.612
100.616
100.621
100.626
100.631
100.637
100.643
100.649
100.655
100.662
100.669
100.676
100.683
100.69
100.698
100.706
100.713
100.721
100.729
100.736
100.744
100.752
100.759
100.766
100.773
100.78
100.786
100.793
100.798
100.804
100.809
100.814
100.819
100.823
100.826
100.83
100.832
100.835
100.837
100.839
100.84
100.841
100.842
100.842
100.842
100.842
100.841
100.84
100.839
100.838
100.837
100.835
100.834
100.832
100.83
100.828
100.826
100.825
100.823
100.821
100.82
100.819
100.817
100.816
100.816
100.815
100.814
100.814
100.814
100.814
100.815
100.816
100.816
100.817
100.818
100.82
100.821
100.823
100.824
100.826
100.827
100.829
100.831
100.832
100.834
100.835
100.836
100.837
100.838
100.839
100.839
100.84
100.84
99.7233
99.7223
99.7204
99.7181
99.7153
99.7124
99.7097
99.7074
99.7058
99.7053
99.7059
99.7081
99.7121
99.718
99.7262
99.7369
99.7503
99.7665
99.7856
99.8078
99.8329
99.8608
99.8913
99.924
99.9584
99.9942
100.031
100.067
100.104
100.14
100.174
100.207
100.238
100.266
100.293
100.316
100.338
100.357
100.374
100.389
100.403
100.415
100.425
100.435
100.445
100.453
100.462
100.47
100.477
100.484
100.49
100.494
100.498
100.499
100.499
100.496
100.492
100.485
100.476
100.466
100.454
100.441
100.427
100.413
100.399
100.385
100.372
100.36
100.349
100.339
100.329
100.322
100.315
100.31
100.306
100.304
100.302
100.302
100.304
100.306
100.309
100.313
100.317
100.322
100.328
100.333
100.339
100.344
100.35
100.356
100.361
100.367
100.372
100.378
100.383
100.388
100.394
100.399
100.404
100.41
100.415
100.421
100.426
100.432
100.437
100.443
100.449
100.455
100.461
100.467
100.472
100.478
100.484
100.49
100.495
100.5
100.505
100.51
100.515
100.52
100.524
100.528
100.532
100.535
100.538
100.541
100.544
100.547
100.549
100.552
100.554
100.556
100.558
100.559
100.561
100.563
100.564
100.566
100.567
100.569
100.57
100.572
100.574
100.575
100.577
100.578
100.58
100.581
100.583
100.585
100.586
100.588
100.59
100.592
100.594
100.596
100.598
100.601
100.603
100.606
100.609
100.612
100.615
100.619
100.622
100.626
100.631
100.635
100.64
100.645
100.651
100.656
100.662
100.668
100.675
100.681
100.688
100.695
100.702
100.709
100.716
100.724
100.731
100.738
100.745
100.753
100.76
100.767
100.774
100.78
100.786
100.793
100.798
100.804
100.809
100.814
100.819
100.823
100.826
100.83
100.833
100.836
100.838
100.84
100.841
100.842
100.843
100.844
100.844
100.843
100.843
100.842
100.841
100.84
100.839
100.838
100.836
100.834
100.833
100.831
100.829
100.828
100.826
100.825
100.823
100.822
100.821
100.82
100.819
100.819
100.818
100.818
100.818
100.819
100.819
100.82
100.821
100.822
100.823
100.824
100.825
100.827
100.828
100.829
100.831
100.832
100.834
100.835
100.836
100.837
100.838
100.839
100.84
100.84
100.84
100.84
99.7306
99.7296
99.7278
99.7254
99.7228
99.72
99.7175
99.7155
99.7143
99.7143
99.7155
99.7184
99.7231
99.73
99.7391
99.7509
99.7654
99.7827
99.803
99.8263
99.8524
99.8811
99.9121
99.9449
99.979
100.014
100.049
100.084
100.118
100.151
100.182
100.21
100.237
100.261
100.283
100.302
100.319
100.334
100.347
100.358
100.369
100.378
100.387
100.396
100.405
100.414
100.424
100.434
100.443
100.453
100.462
100.47
100.478
100.483
100.487
100.489
100.488
100.485
100.481
100.474
100.465
100.454
100.443
100.431
100.418
100.405
100.393
100.38
100.369
100.358
100.348
100.339
100.331
100.324
100.319
100.315
100.313
100.312
100.312
100.313
100.315
100.318
100.322
100.326
100.331
100.336
100.342
100.347
100.353
100.358
100.364
100.369
100.375
100.38
100.385
100.391
100.396
100.402
100.407
100.413
100.418
100.424
100.43
100.435
100.441
100.447
100.453
100.459
100.465
100.471
100.476
100.482
100.488
100.493
100.499
100.504
100.509
100.514
100.518
100.523
100.527
100.531
100.535
100.538
100.541
100.544
100.547
100.549
100.552
100.554
100.556
100.558
100.56
100.562
100.564
100.566
100.568
100.57
100.572
100.573
100.575
100.577
100.579
100.581
100.583
100.585
100.586
100.588
100.59
100.592
100.594
100.596
100.598
100.6
100.602
100.604
100.606
100.608
100.61
100.613
100.615
100.618
100.621
100.624
100.627
100.63
100.634
100.638
100.642
100.646
100.651
100.656
100.661
100.666
100.672
100.678
100.684
100.69
100.697
100.704
100.71
100.717
100.724
100.732
100.739
100.746
100.753
100.76
100.767
100.774
100.78
100.786
100.793
100.798
100.804
100.809
100.814
100.819
100.823
100.827
100.83
100.834
100.836
100.839
100.841
100.842
100.844
100.844
100.845
100.845
100.845
100.845
100.844
100.844
100.843
100.841
100.84
100.839
100.837
100.836
100.834
100.833
100.831
100.83
100.828
100.827
100.826
100.825
100.824
100.824
100.823
100.823
100.823
100.823
100.823
100.823
100.824
100.825
100.825
100.826
100.827
100.828
100.829
100.831
100.832
100.833
100.834
100.835
100.836
100.837
100.837
100.838
100.839
100.839
100.839
100.839
99.7382
99.7373
99.7355
99.7333
99.7308
99.7284
99.7262
99.7247
99.724
99.7246
99.7265
99.7302
99.7358
99.7436
99.7538
99.7666
99.7822
99.8008
99.8222
99.8465
99.8734
99.9028
99.934
99.9668
100
100.034
100.068
100.101
100.132
100.161
100.188
100.213
100.235
100.255
100.272
100.286
100.299
100.31
100.319
100.327
100.335
100.342
100.35
100.358
100.367
100.376
100.387
100.398
100.41
100.423
100.435
100.447
100.457
100.467
100.475
100.48
100.484
100.485
100.484
100.48
100.475
100.467
100.458
100.448
100.437
100.425
100.413
100.4
100.388
100.377
100.366
100.355
100.346
100.338
100.332
100.326
100.322
100.32
100.319
100.319
100.32
100.323
100.326
100.329
100.334
100.338
100.343