# vtk DataFile Version 2.0
HPC Tutorials: Michael Bader, Kaveh Rahnema, Oliver Meister
ASCII
DATASET RECTILINEAR_GRID
DIMENSIONS 257 257 1
X_COORDINATES 257 float
0
0.005
0.01
0.015
0.02
0.025
0.03
0.035
0.04
0.045
0.05
0.055
0.06
0.065
0.07
0.075
0.08
0.085
0.09
0.095
0.1
0.105
0.11
0.115
0.12
0.125
0.13
0.135
0.14
0.145
0.15
0.155
0.16
0.165
0.17
0.175
0.18
0.185
0.19
0.195
0.2
0.205
0.21
0.215
0.22
0.225
0.23
0.235
0.24
0.245
0.25
0.255
0.26
0.265
0.27
0.275
0.28
0.285
0.29
0.295
0.3
0.305
0.31
0.315
0.32
0.325
0.33
0.335
0.34
0.345
0.35
0.355
0.36
0.365
0.37
0.375
0.38
0.385
0.39
0.395
0.4
0.405
0.41
0.415
0.42
0.425
0.43
0.435
0.44
0.445
0.45
0.455
0.46
0.465
0.47
0.475
0.48
0.485
0.49
0.495
0.5
0.505
0.51
0.515
0.52
0.525
0.53
0.535
0.54
0.545
0.55
0.555
0.56
0.565
0.57
0.575
0.58
0.585
0.59
0.595
0.6
0.605
0.61
0.615
0.62
0.625
0.63
0.635
0.64
0.645
0.65
0.655
0.66
0.665
0.67
0.675
0.68
0.685
0.69
0.695
0.7
0.705
0.71
0.715
0.72
0.725
0.73
0.735
0.74
0.745
0.75
0.755
0.76
0.765
0.77
0.775
0.78
0.785
0.79
0.795
0.8
0.805
0.81
0.815
0.82
0.825
0.83
0.835
0.84
0.845
0.85
0.855
0.86
0.865
0.87
0.875
0.88
0.885
0.89
0.895
0.9
0.905
0.91
0.915
0.92
0.925
0.93
0.935
0.94
0.945
0.95
0.955
0.96
0.965
0.97
0.975
0.98
0.985
0.99
0.995
1
1.005
1.01
1.015
1.02
1.025
1.03
1.035
1.04
1.045
1.05
1.055
1.06
1.065
1.07
1.075
1.08
1.085
1.09
1.095
1.1
1.105
1.11
1.115
1.12
1.125
1.13
1.135
1.14
1.145
1.15
1.155
1.16
1.165
1.17
1.175
1.18
1.185
1.19
1.195
1.2
1.205
1.21
1.215
1.22
1.225
1.23
1.235
1.24
1.245
1.25
1.255
1.26
1.265
1.27
1.275
1.28
Y_COORDINATES 257 float
0
0.005
0.01
0.015
0.02
0.025
0.03
0.035
0.04
0.045
0.05
0.055
0.06
0.065
0.07
0.075
0.08
0.085
0.09
0.095
0.1
0.105
0.11
0.115
0.12
0.125
0.13
0.135
0.14
0.145
0.15
0.155
0.16
0.165
0.17
0.175
0.18
0.185
0.19
0.195
0.2
0.205
0.21
0.215
0.22
0.225
0.23
0.235
0.24
0.245
0.25
0.255
0.26
0.265
0.27
0.275
0.28
0.285
0.29
0.295
0.3
0.305
0.31
0.315
0.32
0.325
0.33
0.335
0.34
0.345
0.35
0.355
0.36
0.365
0.37
0.375
0.38
0.385
0.39
0.395
0.4
0.405
0.41
0.415
0.42
0.425
0.43
0.435
0.44
0.445
0.45
0.455
0.46
0.465
0.47
0.475
0.48
0.485
0.49
0.495
0.5
0.505
0.51
0.515
0.52
0.525
0.53
0.535
0.54
0.545
0.55
0.555
0.56
0.565
0.57
0.575
0.58
0.585
0.59
0.595
0.6
0.605
0.61
0.615
0.62
0.625
0.63
0.635
0.64
0.645
0.65
0.655
0.66
0.665
0.67
0.675
0.68
0.685
0.69
0.695
0.7
0.705
0.71
0.715
0.72
0.725
0.73
0.735
0.74
0.745
0.75
0.755
0.76
0.765
0.77
0.775
0.78
0.785
0.79
0.795
0.8
0.805
0.81
0.815
0.82
0.825
0.83
0.835
0.84
0.845
0.85
0.855
0.86
0.865
0.87
0.875
0.88
0.885
0.89
0.895
0.9
0.905
0.91
0.915
0.92
0.925
0.93
0.935
0.94
0.945
0.95
0.955
0.96
0.965
0.97
0.975
0.98
0.985
0.99
0.995
1
1.005
1.01
1.015
1.02
1.025
1.03
1.035
1.04
1.045
1.05
1.055
1.06
1.065
1.07
1.075
1.08
1.085
1.09
1.095
1.1
1.105
1.11
1.115
1.12
1.125
1.13
1.135
1.14
1.145
1.15
1.155
1.16
1.165
1.17
1.175
1.18
1.185
1.19
1.195
1.2
1.205
1.21
1.215
1.22
1.225
1.23
1.235
1.24
1.245
1.25
1.255
1.26
1.265
1.27
1.275
1.28
Z_COORDINATES 1 float
0
CELL_DATA 65536
SCALARS H float 1
LOOKUP_TABLE default
100.385
100.383
100.379
100.375
100.369
100.361
100.353
100.344
100.333
100.322
100.31
100.298
100.285
100.273
100.26
100.247
100.235
100.224
100.213
100.203
100.194
100.186
100.18
100.174
100.17
100.167
100.166
100.166
100.168
100.171
100.174
100.18
100.186
100.193
100.201
100.209
100.219
100.228
100.238
100.248
100.258
100.267
100.277
100.286
100.295
100.303
100.311
100.317
100.324
100.329
100.334
100.338
100.341
100.343
100.345
100.347
100.347
100.348
100.348
100.348
100.347
100.347
100.347
100.347
100.346
100.347
100.347
100.348
100.349
100.351
100.353
100.355
100.358
100.361
100.365
100.369
100.374
100.379
100.384
100.389
100.395
100.402
100.408
100.416
100.423
100.431
100.44
100.448
100.458
100.468
100.478
100.489
100.501
100.513
100.526
100.54
100.553
100.568
100.583
100.598
100.614
100.629
100.645
100.661
100.676
100.69
100.704
100.717
100.728
100.738
100.746
100.753
100.757
100.759
100.759
100.757
100.753
100.747
100.738
100.728
100.717
100.704
100.689
100.674
100.658
100.641
100.624
100.607
100.591
100.574
100.558
100.543
100.529
100.516
100.504
100.494
100.485
100.478
100.473
100.469
100.468
100.468
100.47
100.474
100.479
100.486
100.494
100.504
100.514
100.525
100.536
100.548
100.56
100.572
100.584
100.595
100.606
100.615
100.624
100.632
100.638
100.644
100.648
100.651
100.652
100.652
100.651
100.648
100.644
100.639
100.633
100.626
100.618
100.61
100.6
100.59
100.579
100.568
100.556
100.544
100.531
100.519
100.506
100.493
100.48
100.468
100.455
100.442
100.429
100.417
100.404
100.392
100.38
100.368
100.356
100.345
100.334
100.323
100.312
100.302
100.292
100.283
100.275
100.266
100.259
100.252
100.246
100.241
100.237
100.234
100.232
100.231
100.231
100.233
100.235
100.24
100.245
100.252
100.26
100.269
100.28
100.292
100.305
100.319
100.335
100.351
100.368
100.385
100.403
100.422
100.44
100.459
100.477
100.495
100.513
100.53
100.547
100.563
100.578
100.592
100.605
100.617
100.627
100.637
100.646
100.654
100.661
100.667
100.672
100.676
100.68
100.683
100.685
100.687
100.688
100.688
100.383
100.381
100.378
100.373
100.367
100.36
100.351
100.342
100.332
100.321
100.309
100.297
100.285
100.272
100.26
100.248
100.236
100.225
100.214
100.204
100.195
100.188
100.181
100.176
100.172
100.17
100.169
100.169
100.17
100.173
100.177
100.182
100.188
100.195
100.202
100.211
100.22
100.229
100.239
100.248
100.258
100.268
100.277
100.286
100.294
100.302
100.31
100.316
100.322
100.328
100.332
100.336
100.34
100.342
100.344
100.345
100.346
100.347
100.347
100.347
100.347
100.346
100.346
100.346
100.346
100.346
100.347
100.348
100.349
100.351
100.353
100.356
100.358
100.362
100.366
100.37
100.374
100.379
100.385
100.39
100.396
100.403
100.409
100.417
100.424
100.432
100.441
100.45
100.459
100.469
100.48
100.491
100.502
100.515
100.527
100.541
100.555
100.569
100.584
100.599
100.614
100.63
100.645
100.661
100.675
100.69
100.703
100.716
100.727
100.736
100.744
100.75
100.755
100.757
100.757
100.755
100.751
100.745
100.737
100.727
100.716
100.703
100.689
100.674
100.658
100.642
100.625
100.609
100.592
100.576
100.56
100.545
100.531
100.518
100.507
100.497
100.488
100.481
100.476
100.472
100.471
100.471
100.473
100.476
100.482
100.488
100.496
100.505
100.515
100.526
100.538
100.549
100.561
100.573
100.584
100.595
100.606
100.616
100.624
100.632
100.638
100.644
100.648
100.65
100.652
100.652
100.65
100.648
100.644
100.639
100.633
100.626
100.618
100.609
100.6
100.59
100.579
100.568
100.556
100.545
100.532
100.52
100.508
100.495
100.482
100.47
100.457
100.445
100.432
100.42
100.408
100.396
100.384
100.372
100.361
100.349
100.338
100.328
100.317
100.307
100.298
100.289
100.28
100.272
100.265
100.258
100.252
100.247
100.243
100.24
100.238
100.237
100.237
100.239
100.242
100.246
100.251
100.258
100.266
100.276
100.287
100.299
100.312
100.326
100.341
100.358
100.375
100.392
100.41
100.429
100.447
100.466
100.484
100.503
100.521
100.538
100.555
100.571
100.586
100.6
100.613
100.626
100.637
100.647
100.656
100.664
100.672
100.678
100.683
100.688
100.692
100.695
100.697
100.699
100.7
100.7
100.38
100.378
100.375
100.37
100.364
100.357
100.349
100.34
100.33
100.319
100.308
100.296
100.284
100.272
100.26
100.248
100.237
100.226
100.216
100.206
100.198
100.191
100.184
100.179
100.176
100.173
100.172
100.172
100.174
100.176
100.18
100.185
100.191
100.198
100.205
100.213
100.222
100.23
100.24
100.249
100.258
100.267
100.276
100.285
100.293
100.301
100.308
100.315
100.321
100.326
100.33
100.334
100.337
100.34
100.342
100.343
100.344
100.345
100.345
100.345
100.345
100.345
100.345
100.345
100.345
100.346
100.346
100.348
100.349
100.351
100.353
100.356
100.359
100.363
100.366
100.371
100.375
100.38
100.386
100.392
100.398
100.404
100.411
100.418
100.426
100.434
100.443
100.452
100.461
100.471
100.482
100.493
100.505
100.517
100.53
100.543
100.557
100.571
100.586
100.6
100.616
100.631
100.646
100.661
100.675
100.689
100.702
100.714
100.724
100.733
100.741
100.747
100.751
100.753
100.753
100.751
100.747
100.741
100.734
100.724
100.713
100.701
100.688
100.673
100.658
100.642
100.626
100.61
100.594
100.578
100.563
100.548
100.535
100.522
100.511
100.501
100.492
100.485
100.48
100.476
100.475
100.475
100.476
100.479
100.484
100.491
100.498
100.507
100.517
100.527
100.538
100.55
100.561
100.573
100.584
100.595
100.605
100.614
100.623
100.63
100.637
100.642
100.646
100.648
100.65
100.65
100.648
100.646
100.642
100.637
100.631
100.624
100.616
100.608
100.598
100.588
100.578
100.567
100.556
100.544
100.532
100.52
100.508
100.496
100.484
100.472
100.46
100.448
100.436
100.424
100.412
100.4
100.389
100.377
100.366
100.355
100.344
100.334
100.324
100.314
100.305
100.296
100.287
100.28
100.272
100.266
100.26
100.255
100.251
100.248
100.247
100.246
100.246
100.248
100.251
100.255
100.261
100.268
100.276
100.286
100.297
100.309
100.322
100.336
100.352
100.368
100.385
100.403
100.421
100.44
100.458
100.477
100.496
100.515
100.533
100.551
100.568
100.584
100.6
100.614
100.628
100.641
100.652
100.663
100.673
100.681
100.689
100.696
100.702
100.707
100.711
100.714
100.717
100.718
100.72
100.72
100.376
100.374
100.371
100.366
100.36
100.354
100.346
100.337
100.327
100.317
100.306
100.294
100.283
100.271
100.26
100.249
100.238
100.228
100.218
100.209
100.201
100.195
100.189
100.184
100.181
100.179
100.178
100.178
100.179
100.182
100.185
100.19
100.195
100.201
100.208
100.216
100.224
100.232
100.241
100.25
100.259
100.267
100.276
100.284
100.292
100.299
100.306
100.312
100.318
100.323
100.327
100.331
100.334
100.337
100.339
100.34
100.341
100.342
100.342
100.343
100.343
100.343
100.343
100.343
100.344
100.345
100.346
100.347
100.349
100.351
100.353
100.356
100.36
100.363
100.368
100.372
100.377
100.382
100.388
100.394
100.4
100.406
100.413
100.421
100.429
100.437
100.445
100.455
100.464
100.474
100.485
100.496
100.508
100.52
100.533
100.546
100.56
100.574
100.588
100.603
100.617
100.632
100.647
100.661
100.674
100.687
100.7
100.711
100.721
100.729
100.736
100.742
100.745
100.747
100.747
100.745
100.741
100.736
100.729
100.72
100.71
100.698
100.685
100.671
100.657
100.642
100.627
100.611
100.596
100.581
100.566
100.552
100.538
100.526
100.515
100.505
100.497
100.49
100.485
100.481
100.479
100.478
100.48
100.483
100.487
100.493
100.5
100.508
100.517
100.527
100.538
100.549
100.56
100.571
100.582
100.592
100.602
100.612
100.62
100.627
100.633
100.638
100.642
100.644
100.645
100.645
100.644
100.641
100.637
100.632
100.626
100.62
100.612
100.604
100.594
100.585
100.575
100.564
100.553
100.542
100.531
100.519
100.508
100.496
100.484
100.473
100.461
100.45
100.438
100.427
100.416
100.404
100.393
100.382
100.372
100.361
100.351
100.341
100.331
100.322
100.313
100.304
100.296
100.288
100.282
100.275
100.27
100.265
100.262
100.259
100.257
100.257
100.258
100.26
100.263
100.267
100.273
100.28
100.289
100.299
100.31
100.322
100.336
100.35
100.366
100.383
100.4
100.418
100.436
100.455
100.474
100.493
100.513
100.532
100.55
100.568
100.586
100.603
100.619
100.634
100.649
100.662
100.674
100.686
100.696
100.705
100.714
100.721
100.727
100.733
100.737
100.741
100.744
100.746
100.747
100.748
100.37
100.368
100.365
100.361
100.355
100.349
100.341
100.333
100.323
100.314
100.303
100.293
100.282
100.271
100.26
100.25
100.24
100.23
100.221
100.213
100.206
100.2
100.194
100.19
100.187
100.185
100.184
100.184
100.186
100.188
100.191
100.195
100.201
100.206
100.213
100.22
100.227
100.235
100.243
100.251
100.259
100.267
100.275
100.283
100.29
100.297
100.303
100.309
100.315
100.32
100.324
100.327
100.33
100.333
100.335
100.336
100.338
100.338
100.339
100.34
100.34
100.34
100.341
100.342
100.342
100.344
100.345
100.347
100.349
100.351
100.354
100.357
100.361
100.365
100.369
100.374
100.379
100.384
100.39
100.396
100.402
100.409
100.416
100.424
100.432
100.44
100.449
100.458
100.468
100.479
100.489
100.501
100.512
100.525
100.537
100.55
100.564
100.578
100.591
100.606
100.62
100.634
100.647
100.661
100.674
100.686
100.697
100.707
100.716
100.724
100.73
100.735
100.738
100.74
100.739
100.737
100.734
100.729
100.722
100.714
100.704
100.693
100.681
100.668
100.655
100.641
100.626
100.611
100.597
100.582
100.568
100.555
100.542
100.53
100.519
100.509
100.501
100.494
100.489
100.485
100.482
100.482
100.483
100.485
100.489
100.494
100.5
100.508
100.517
100.526
100.536
100.546
100.557
100.567
100.578
100.588
100.597
100.606
100.614
100.621
100.627
100.631
100.635
100.637
100.638
100.638
100.636
100.634
100.63
100.625
100.619
100.612
100.605
100.596
100.588
100.578
100.569
100.558
100.548
100.537
100.527
100.516
100.505
100.494
100.483
100.472
100.461
100.45
100.439
100.429
100.418
100.407
100.397
100.387
100.376
100.366
100.357
100.347
100.338
100.329
100.32
100.312
100.304
100.297
100.291
100.285
100.28
100.276
100.272
100.27
100.269
100.269
100.27
100.272
100.276
100.281
100.287
100.294
100.303
100.314
100.325
100.338
100.352
100.367
100.383
100.4
100.417
100.436
100.455
100.474
100.493
100.513
100.533
100.552
100.572
100.59
100.609
100.626
100.643
100.659
100.674
100.688
100.702
100.714
100.725
100.735
100.744
100.752
100.759
100.765
100.77
100.774
100.777
100.779
100.781
100.782
100.363
100.361
100.359
100.354
100.349
100.343
100.336
100.328
100.319
100.31
100.3
100.29
100.28
100.27
100.261
100.251
100.242
100.233
100.225
100.218
100.211
100.206
100.201
100.197
100.194
100.193
100.192
100.192
100.193
100.195
100.198
100.202
100.207
100.212
100.218
100.224
100.231
100.238
100.245
100.252
100.26
100.267
100.274
100.281
100.288
100.295
100.301
100.306
100.311
100.315
100.319
100.323
100.326
100.328
100.33
100.332
100.333
100.334
100.335
100.336
100.337
100.338
100.339
100.34
100.341
100.342
100.344
100.346
100.348
100.351
100.354
100.358
100.362
100.366
100.371
100.376
100.381
100.387
100.393
100.399
100.406
100.413
100.42
100.428
100.436
100.445
100.454
100.463
100.473
100.484
100.495
100.506
100.518
100.53
100.543
100.556
100.569
100.582
100.596
100.609
100.623
100.636
100.649
100.661
100.673
100.683
100.693
100.703
100.71
100.717
100.722
100.726
100.729
100.73
100.729
100.727
100.724
100.719
100.713
100.705
100.696
100.686
100.675
100.663
100.65
100.637
100.624
100.61
100.596
100.583
100.569
100.556
100.544
100.533
100.522
100.513
100.505
100.498
100.492
100.488
100.485
100.484
100.484
100.486
100.489
100.494
100.499
100.506
100.514
100.522
100.532
100.541
100.551
100.561
100.571
100.58
100.589
100.598
100.605
100.612
100.617
100.622
100.625
100.627
100.628
100.627
100.626
100.623
100.619
100.614
100.608
100.602
100.594
100.587
100.578
100.569
100.56
100.55
100.54
100.53
100.52
100.51
100.5
100.489
100.479
100.469
100.459
100.448
100.438
100.428
100.418
100.408
100.399
100.389
100.379
100.37
100.361
100.352
100.343
100.335
100.327
100.319
100.312
100.305
100.299
100.294
100.289
100.285
100.282
100.281
100.28
100.28
100.282
100.285
100.289
100.294
100.301
100.309
100.318
100.329
100.341
100.354
100.369
100.384
100.401
100.418
100.436
100.455
100.475
100.495
100.515
100.535
100.556
100.576
100.596
100.616
100.635
100.653
100.671
100.688
100.704
100.719
100.733
100.746
100.758
100.769
100.778
100.787
100.795
100.801
100.807
100.812
100.815
100.818
100.819
100.82
100.355
100.353
100.351
100.347
100.342
100.336
100.33
100.322
100.314
100.306
100.297
100.288
100.279
100.27
100.261
100.253
100.245
100.237
100.23
100.224
100.218
100.213
100.209
100.205
100.203
100.201
100.201
100.201
100.202
100.204
100.206
100.21
100.214
100.218
100.223
100.229
100.235
100.241
100.247
100.254
100.261
100.267
100.274
100.28
100.286
100.292
100.297
100.302
100.307
100.311
100.315
100.318
100.321
100.323
100.325
100.327
100.329
100.33
100.331
100.332
100.334
100.335
100.336
100.337
100.339
100.341
100.343
100.345
100.348
100.351
100.355
100.359
100.363
100.368
100.372
100.378
100.383
100.389
100.396
100.402
100.409
100.416
100.424
100.432
100.441
100.45
100.459
100.469
100.479
100.49
100.501
100.512
100.524
100.536
100.549
100.562
100.575
100.588
100.6
100.613
100.626
100.638
100.65
100.661
100.671
100.681
100.689
100.697
100.703
100.709
100.713
100.716
100.718
100.718
100.717
100.715
100.712
100.707
100.701
100.694
100.686
100.677
100.666
100.656
100.644
100.632
100.619
100.607
100.594
100.581
100.569
100.557
100.545
100.534
100.524
100.515
100.507
100.5
100.494
100.489
100.486
100.485
100.484
100.485
100.488
100.492
100.496
100.502
100.509
100.517
100.526
100.534
100.544
100.553
100.562
100.571
100.579
100.587
100.594
100.6
100.605
100.609
100.612
100.614
100.615
100.614
100.612
100.609
100.606
100.601
100.595
100.589
100.582
100.574
100.566
100.558
100.549
100.54
100.53
100.521
100.511
100.502
100.492
100.483
100.473
100.464
100.454
100.445
100.436
100.427
100.417
100.408
100.399
100.39
100.381
100.372
100.364
100.355
100.347
100.339
100.332
100.325
100.318
100.312
100.306
100.301
100.297
100.294
100.292
100.29
100.29
100.291
100.293
100.296
100.301
100.307
100.314
100.323
100.333
100.344
100.356
100.37
100.385
100.401
100.419
100.437
100.456
100.476
100.496
100.517
100.538
100.559
100.58
100.601
100.622
100.643
100.663
100.682
100.701
100.719
100.736
100.752
100.767
100.781
100.794
100.805
100.816
100.826
100.834
100.841
100.847
100.852
100.856
100.859
100.861
100.862
100.346
100.344
100.342
100.338
100.334
100.329
100.323
100.316
100.309
100.302
100.294
100.286
100.278
100.27
100.263
100.255
100.248
100.242
100.235
100.23
100.225
100.221
100.217
100.215
100.212
100.211
100.211
100.211
100.212
100.213
100.215
100.218
100.221
100.225
100.229
100.234
100.239
100.244
100.25
100.256
100.261
100.267
100.273
100.278
100.284
100.289
100.294
100.298
100.302
100.306
100.31
100.313
100.315
100.318
100.32
100.322
100.324
100.326
100.327
100.329
100.33
100.332
100.333
100.335
100.337
100.34
100.342
100.345
100.348
100.352
100.356
100.36
100.364
100.369
100.375
100.38
100.386
100.392
100.399
100.406
100.413
100.421
100.429
100.437
100.446
100.455
100.465
100.475
100.486
100.497
100.508
100.52
100.531
100.544
100.556
100.568
100.581
100.593
100.605
100.617
100.629
100.64
100.65
100.66
100.669
100.677
100.684
100.69
100.695
100.699
100.702
100.704
100.705
100.705
100.703
100.701
100.697
100.693
100.687
100.681
100.673
100.665
100.656
100.646
100.635
100.624
100.613
100.601
100.59
100.578
100.566
100.555
100.544
100.534
100.524
100.515
100.507
100.5
100.495
100.49
100.486
100.484
100.483
100.484
100.485
100.488
100.492
100.497
100.503
100.51
100.518
100.526
100.534
100.543
100.551
100.559
100.567
100.574
100.581
100.586
100.591
100.595
100.598
100.599
100.6
100.599
100.597
100.594
100.591
100.586
100.581
100.575
100.568
100.561
100.553
100.545
100.537
100.528
100.52
100.511
100.502
100.493
100.485
100.476
100.467
100.458
100.45
100.441
100.433
100.424
100.416
100.407
100.399
100.391
100.383
100.375
100.367
100.359
100.351
100.344
100.337
100.33
100.324
100.318
100.313
100.309
100.305
100.302
100.3
100.299
100.3
100.301
100.303
100.307
100.312
100.319
100.326
100.336
100.346
100.358
100.371
100.386
100.401
100.418
100.436
100.455
100.475
100.495
100.516
100.538
100.56
100.582
100.604
100.626
100.648
100.67
100.691
100.711
100.731
100.75
100.768
100.785
100.801
100.816
100.83
100.843
100.854
100.865
100.874
100.882
100.889
100.894
100.899
100.902
100.904
100.905
100.335
100.334
100.331
100.329
100.325
100.32
100.315
100.31
100.304
100.297
100.291
100.284
100.277
100.271
100.264
100.258
100.252
100.247
100.242
100.237
100.233
100.23
100.227
100.224
100.223
100.222
100.221
100.221
100.222
100.223
100.224
100.227
100.229
100.232
100.236
100.24
100.244
100.248
100.253
100.257
100.262
100.267
100.272
100.276
100.281
100.285
100.29
100.294
100.297
100.301
100.304
100.307
100.31
100.312
100.315
100.317
100.319
100.321
100.323
100.325
100.327
100.329
100.331
100.333
100.336
100.339
100.342
100.345
100.349
100.353
100.357
100.361
100.366
100.371
100.377
100.383
100.389
100.395
100.402
100.41
100.417
100.425
100.434
100.443
100.452
100.461
100.471
100.482
100.493
100.504
100.516
100.527
100.539
100.551
100.563
100.576
100.588
100.599
100.611
100.621
100.632
100.641
100.65
100.658
100.666
100.672
100.677
100.682
100.685
100.688
100.689
100.69
100.69
100.689
100.687
100.684
100.68
100.676
100.671
100.665
100.658
100.65
100.642
100.633
100.624
100.614
100.604
100.594
100.583
100.573
100.562
100.552
100.542
100.532
100.523
100.515
100.507
100.5
100.494
100.489
100.485
100.483
100.481
100.481
100.482
100.484
100.488
100.492
100.497
100.503
100.509
100.517
100.524
100.532
100.539
100.547
100.554
100.561
100.567
100.572
100.576
100.58
100.582
100.583
100.584
100.583
100.582
100.579
100.575
100.571
100.566
100.56
100.554
100.547
100.54
100.533
100.525
100.517
100.509
100.501
100.493
100.485
100.477
100.47
100.462
100.454
100.446
100.438
100.431
100.423
100.415
100.408
100.4
100.393
100.385
100.378
100.37
100.363
100.356
100.349
100.343
100.336
100.331
100.325
100.321
100.317
100.313
100.311
100.309
100.309
100.309
100.311
100.314
100.318
100.323
100.33
100.338
100.348
100.359
100.371
100.385
100.4
100.416
100.434
100.452
100.472
100.492
100.513
100.535
100.558
100.581
100.604
100.627
100.65
100.673
100.695
100.718
100.739
100.76
100.78
100.799
100.817
100.835
100.851
100.865
100.879
100.892
100.903
100.913
100.921
100.929
100.935
100.94
100.943
100.945
100.946
100.323
100.322
100.321
100.318
100.315
100.311
100.307
100.303
100.298
100.293
100.287
100.282
100.277
100.271
100.266
100.261
100.257
100.253
100.249
100.245
100.242
100.239
100.237
100.235
100.234
100.233
100.232
100.232
100.232
100.233
100.234
100.236
100.238
100.24
100.243
100.245
100.249
100.252
100.255
100.259
100.263
100.267
100.271
100.274
100.278
100.282
100.286
100.289
100.292
100.296
100.299
100.301
100.304
100.307
100.309
100.312
100.314
100.316
100.319
100.321
100.324
100.326
100.329
100.332
100.335
100.338
100.342
100.345
100.349
100.354
100.358
100.363
100.368
100.374
100.379
100.386
100.392
100.399
100.406
100.414
100.422
100.43
100.439
100.448
100.458
100.468
100.478
100.489
100.5
100.512
100.523
100.535
100.547
100.559
100.571
100.583
100.594
100.605
100.615
100.625
100.634
100.642
100.649
100.656
100.661
100.666
100.669
100.672
100.674
100.674
100.675
100.674
100.673
100.671
100.668
100.665
100.661
100.657
100.652
100.646
100.64
100.634
100.627
100.619
100.611
100.603
100.594
100.585
100.575
100.566
100.557
100.547
100.538
100.529
100.521
100.513
100.506
100.499
100.493
100.488
100.484
100.481
100.48
100.479
100.479
100.48
100.483
100.486
100.491
100.496
100.501
100.508
100.514
100.521
100.528
100.535
100.541
100.547
100.553
100.558
100.562
100.565
100.567
100.568
100.569
100.568
100.567
100.564
100.561
100.557
100.552
100.547
100.542
100.535
100.529
100.522
100.515
100.508
100.501
100.494
100.487
100.48
100.473
100.466
100.459
100.452
100.445
100.438
100.431
100.424
100.417
100.41
100.404
100.397
100.39
100.383
100.376
100.37
100.363
100.357
100.351
100.345
100.34
100.335
100.33
100.327
100.324
100.321
100.32
100.32
100.321
100.322
100.326
100.33
100.336
100.343
100.351
100.361
100.372
100.385
100.399
100.414
100.431
100.449
100.468
100.488
100.509
100.53
100.553
100.576
100.599
100.623
100.647
100.671
100.695
100.718
100.741
100.764
100.786
100.807
100.827
100.846
100.864
100.881
100.897
100.912
100.925
100.937
100.948
100.957
100.965
100.972
100.977
100.981
100.983
100.984
100.311
100.31
100.309
100.307
100.305
100.302
100.299
100.295
100.292
100.288
100.284
100.28
100.276
100.272
100.269
100.265
100.262
100.259
100.256
100.253
100.251
100.249
100.247
100.246
100.245
100.244
100.244
100.243
100.243
100.244
100.244
100.245
100.246
100.248
100.249
100.251
100.253
100.256
100.258
100.261
100.264
100.266
100.269
100.272
100.275
100.278
100.281
100.284
100.287
100.29
100.293
100.296
100.299
100.301
100.304
100.307
100.309
100.312
100.315
100.318
100.321
100.324
100.327
100.331
100.334
100.338
100.342
100.346
100.35
100.355
100.36
100.365
100.37
100.376
100.382
100.389
100.395
100.403
100.41
100.418
100.426
100.435
100.444
100.454
100.464
100.475
100.485
100.497
100.508
100.52
100.531
100.543
100.555
100.567
100.578
100.589
100.6
100.61
100.619
100.627
100.635
100.641
100.647
100.651
100.655
100.657
100.659
100.66
100.66
100.659
100.658
100.656
100.654
100.651
100.648
100.644
100.64
100.636
100.631
100.626
100.621
100.615
100.609
100.603
100.596
100.589
100.581
100.574
100.566
100.558
100.55
100.542
100.534
100.526
100.518
100.511
100.504
100.498
100.493
100.488
100.484
100.481
100.478
100.477
100.477
100.478
100.48
100.482
100.486
100.49
100.495
100.5
100.506
100.512
100.518
100.524
100.53
100.536
100.541
100.545
100.549
100.552
100.554
100.555
100.556
100.555
100.554
100.552
100.549
100.546
100.542
100.537
100.532
100.526
100.521
100.515
100.509
100.502
100.496
100.49
100.484
100.477
100.471
100.465
100.459
100.453
100.447
100.441
100.435
100.429
100.423
100.417
100.411
100.404
100.398
100.392
100.386
100.38
100.374
100.368
100.362
100.357
100.352
100.347
100.343
100.34
100.337
100.335
100.334
100.334
100.335
100.337
100.34
100.344
100.35
100.357
100.366
100.375
100.387
100.4
100.414
100.429
100.446
100.464
100.483
100.503
100.525
100.547
100.57
100.593
100.617
100.641
100.666
100.69
100.714
100.738
100.762
100.785
100.808
100.83
100.851
100.871
100.89
100.908
100.924
100.94
100.954
100.966
100.978
100.988
100.996
101.003
101.009
101.013
101.016
101.017
100.298
100.298
100.297
100.296
100.294
100.292
100.29
100.288
100.286
100.283
100.281
100.278
100.276
100.274
100.271
100.269
100.267
100.265
100.264
100.262
100.261
100.259
100.258
100.257
100.257
100.256
100.255
100.255
100.255
100.255
100.255
100.255
100.255
100.256
100.256
100.257
100.258
100.26
100.261
100.263
100.264
100.266
100.268
100.27
100.272
100.275
100.277
100.28
100.282
100.285
100.288
100.29
100.293
100.296
100.299
100.302
100.305
100.308
100.312
100.315
100.319
100.322
100.326
100.33
100.334
100.338
100.342
100.347
100.352
100.357
100.362
100.367
100.373
100.379
100.385
100.392
100.399
100.407
100.414
100.423
100.432
100.441
100.45
100.46
100.471
100.482
100.493
100.504
100.516
100.527
100.539
100.551
100.563
100.574
100.585
100.595
100.604
100.613
100.621
100.628
100.633
100.638
100.642
100.644
100.646
100.647
100.646
100.645
100.644
100.642
100.639
100.636
100.632
100.629
100.625
100.621
100.617
100.613
100.608
100.604
100.599
100.595
100.59
100.585
100.579
100.574
100.568
100.562
100.556
100.549
100.543
100.536
100.529
100.523
100.516
100.51
100.504
100.498
100.493
100.488
100.485
100.482
100.479
100.478
100.477
100.478
100.479
100.481
100.484
100.487
100.491
100.496
100.501
100.506
100.512
100.517
100.522
100.527
100.532
100.536
100.539
100.542
100.544
100.545
100.546
100.545
100.544
100.543
100.54
100.537
100.534
100.53
100.526
100.521
100.516
100.511
100.506
100.5
100.495
100.49
100.484
100.479
100.474
100.469
100.464
100.458
100.453
100.448
100.443
100.438
100.433
100.427
100.422
100.416
100.411
100.405
100.4
100.394
100.389
100.383
100.378
100.373
100.368
100.364
100.36
100.357
100.355
100.353
100.352
100.352
100.353
100.355
100.358
100.362
100.368
100.375
100.384
100.393
100.405
100.417
100.431
100.447
100.463
100.481
100.5
100.521
100.542
100.564
100.587
100.61
100.634
100.658
100.683
100.707
100.732
100.756
100.78
100.803
100.826
100.848
100.87
100.89
100.91
100.928
100.945
100.961
100.976
100.989
101.001
101.011
101.02
101.027
101.033
101.037
101.04
101.041
100.285
100.285
100.284
100.284
100.283
100.283
100.282
100.281
100.28
100.279
100.278
100.277
100.276
100.275
100.274
100.274
100.273
100.272
100.272
100.271
100.271
100.27
100.269
100.269
100.268
100.268
100.267
100.267
100.266
100.266
100.265
100.265
100.264
100.264
100.264
100.263
100.263
100.264
100.264
100.264
100.265
100.266
100.267
100.268
100.27
100.271
100.273
100.275
100.277
100.28
100.282
100.285
100.288
100.291
100.294
100.298
100.301
100.305
100.309
100.313
100.317
100.321
100.325
100.33
100.334
100.339
100.344
100.349
100.354
100.359
100.364
100.37
100.376
100.383
100.389
100.396
100.403
100.411
100.419
100.428
100.437
100.446
100.456
100.467
100.478
100.489
100.5
100.511
100.523
100.535
100.546
100.558
100.569
100.579
100.589
100.599
100.607
100.614
100.621
100.626
100.63
100.633
100.634
100.635
100.635
100.633
100.631
100.629
100.625
100.622
100.618
100.613
100.609
100.605
100.6
100.596
100.592
100.588
100.584
100.581
100.577
100.573
100.57
100.566
100.562
100.558
100.554
100.55
100.545
100.541
100.536
100.531
100.525
100.52
100.515
100.51
100.505
100.5
100.495
100.491
100.488
100.485
100.483
100.481
100.481
100.481
100.481
100.483
100.485
100.488
100.491
100.495
100.499
100.504
100.508
100.513
100.517
100.522
100.526
100.529
100.533
100.535
100.537
100.538
100.539
100.539
100.538
100.537
100.535
100.533
100.53
100.527
100.523
100.519
100.515
100.511
100.507
100.502
100.498
100.493
100.489
100.485
100.48
100.476
100.472
100.468
100.464
100.459
100.455
100.451
100.446
100.442
100.437
100.432
100.427
100.422
100.417
100.412
100.408
100.403
100.398
100.393
100.389
100.385
100.382
100.379
100.376
100.375
100.374
100.374
100.375
100.377
100.38
100.385
100.391
100.398
100.406
100.416
100.427
100.439
100.453
100.468
100.484
100.502
100.521
100.54
100.561
100.583
100.605
100.628
100.651
100.675
100.699
100.724
100.748
100.772
100.795
100.819
100.841
100.863
100.885
100.905
100.924
100.943
100.96
100.976
100.991
101.004
101.016
101.026
101.035
101.043
101.049
101.053
101.056
101.057
100.272
100.272
100.272
100.272
100.273
100.273
100.273
100.273
100.274
100.274
100.275
100.275
100.276
100.277
100.277
100.278
100.279
100.279
100.28
100.28
100.28
100.281
100.281
100.28
100.28
100.28
100.279
100.278
100.277
100.276
100.275
100.274
100.273
100.272
100.271
100.269
100.268
100.267
100.267
100.266
100.266
100.266
100.266
100.266
100.267
100.268
100.269
100.271
100.273
100.275
100.278
100.28
100.283
100.287
100.29
100.294
100.298
100.302
100.307
100.311
100.316
100.32
100.325
100.33
100.335
100.34
100.345
100.351
100.356
100.362
100.368
100.374
100.38
100.386
100.393
100.401
100.408
100.416
100.425
100.434
100.443
100.453
100.463
100.473
100.484