# vtk DataFile Version 2.0
HPC Tutorials: Michael Bader, Kaveh Rahnema, Oliver Meister
ASCII
DATASET RECTILINEAR_GRID
DIMENSIONS 257 257 1
X_COORDINATES 257 float
0
0.005
0.01
0.015
0.02
0.025
0.03
0.035
0.04
0.045
0.05
0.055
0.06
0.065
0.07
0.075
0.08
0.085
0.09
0.095
0.1
0.105
0.11
0.115
0.12
0.125
0.13
0.135
0.14
0.145
0.15
0.155
0.16
0.165
0.17
0.175
0.18
0.185
0.19
0.195
0.2
0.205
0.21
0.215
0.22
0.225
0.23
0.235
0.24
0.245
0.25
0.255
0.26
0.265
0.27
0.275
0.28
0.285
0.29
0.295
0.3
0.305
0.31
0.315
0.32
0.325
0.33
0.335
0.34
0.345
0.35
0.355
0.36
0.365
0.37
0.375
0.38
0.385
0.39
0.395
0.4
0.405
0.41
0.415
0.42
0.425
0.43
0.435
0.44
0.445
0.45
0.455
0.46
0.465
0.47
0.475
0.48
0.485
0.49
0.495
0.5
0.505
0.51
0.515
0.52
0.525
0.53
0.535
0.54
0.545
0.55
0.555
0.56
0.565
0.57
0.575
0.58
0.585
0.59
0.595
0.6
0.605
0.61
0.615
0.62
0.625
0.63
0.635
0.64
0.645
0.65
0.655
0.66
0.665
0.67
0.675
0.68
0.685
0.69
0.695
0.7
0.705
0.71
0.715
0.72
0.725
0.73
0.735
0.74
0.745
0.75
0.755
0.76
0.765
0.77
0.775
0.78
0.785
0.79
0.795
0.8
0.805
0.81
0.815
0.82
0.825
0.83
0.835
0.84
0.845
0.85
0.855
0.86
0.865
0.87
0.875
0.88
0.885
0.89
0.895
0.9
0.905
0.91
0.915
0.92
0.925
0.93
0.935
0.94
0.945
0.95
0.955
0.96
0.965
0.97
0.975
0.98
0.985
0.99
0.995
1
1.005
1.01
1.015
1.02
1.025
1.03
1.035
1.04
1.045
1.05
1.055
1.06
1.065
1.07
1.075
1.08
1.085
1.09
1.095
1.1
1.105
1.11
1.115
1.12
1.125
1.13
1.135
1.14
1.145
1.15
1.155
1.16
1.165
1.17
1.175
1.18
1.185
1.19
1.195
1.2
1.205
1.21
1.215
1.22
1.225
1.23
1.235
1.24
1.245
1.25
1.255
1.26
1.265
1.27
1.275
1.28
Y_COORDINATES 257 float
0
0.005
0.01
0.015
0.02
0.025
0.03
0.035
0.04
0.045
0.05
0.055
0.06
0.065
0.07
0.075
0.08
0.085
0.09
0.095
0.1
0.105
0.11
0.115
0.12
0.125
0.13
0.135
0.14
0.145
0.15
0.155
0.16
0.165
0.17
0.175
0.18
0.185
0.19
0.195
0.2
0.205
0.21
0.215
0.22
0.225
0.23
0.235
0.24
0.245
0.25
0.255
0.26
0.265
0.27
0.275
0.28
0.285
0.29
0.295
0.3
0.305
0.31
0.315
0.32
0.325
0.33
0.335
0.34
0.345
0.35
0.355
0.36
0.365
0.37
0.375
0.38
0.385
0.39
0.395
0.4
0.405
0.41
0.415
0.42
0.425
0.43
0.435
0.44
0.445
0.45
0.455
0.46
0.465
0.47
0.475
0.48
0.485
0.49
0.495
0.5
0.505
0.51
0.515
0.52
0.525
0.53
0.535
0.54
0.545
0.55
0.555
0.56
0.565
0.57
0.575
0.58
0.585
0.59
0.595
0.6
0.605
0.61
0.615
0.62
0.625
0.63
0.635
0.64
0.645
0.65
0.655
0.66
0.665
0.67
0.675
0.68
0.685
0.69
0.695
0.7
0.705
0.71
0.715
0.72
0.725
0.73
0.735
0.74
0.745
0.75
0.755
0.76
0.765
0.77
0.775
0.78
0.785
0.79
0.795
0.8
0.805
0.81
0.815
0.82
0.825
0.83
0.835
0.84
0.845
0.85
0.855
0.86
0.865
0.87
0.875
0.88
0.885
0.89
0.895
0.9
0.905
0.91
0.915
0.92
0.925
0.93
0.935
0.94
0.945
0.95
0.955
0.96
0.965
0.97
0.975
0.98
0.985
0.99
0.995
1
1.005
1.01
1.015
1.02
1.025
1.03
1.035
1.04
1.045
1.05
1.055
1.06
1.065
1.07
1.075
1.08
1.085
1.09
1.095
1.1
1.105
1.11
1.115
1.12
1.125
1.13
1.135
1.14
1.145
1.15
1.155
1.16
1.165
1.17
1.175
1.18
1.185
1.19
1.195
1.2
1.205
1.21
1.215
1.22
1.225
1.23
1.235
1.24
1.245
1.25
1.255
1.26
1.265
1.27
1.275
1.28
Z_COORDINATES 1 float
0
CELL_DATA 65536
SCALARS H float 1
LOOKUP_TABLE default
100.255
100.256
100.257
100.258
100.258
100.259
100.259
100.259
100.259
100.258
100.258
100.258
100.259
100.259
100.258
100.258
100.257
100.256
100.255
100.253
100.252
100.252
100.251
100.251
100.251
100.252
100.253
100.255
100.256
100.258
100.26
100.263
100.265
100.268
100.271
100.274
100.277
100.279
100.282
100.285
100.287
100.289
100.29
100.291
100.291
100.291
100.29
100.289
100.287
100.285
100.283
100.281
100.278
100.276
100.273
100.271
100.269
100.266
100.264
100.263
100.261
100.26
100.259
100.259
100.259
100.259
100.259
100.26
100.261
100.262
100.263
100.264
100.266
100.268
100.27
100.272
100.274
100.276
100.278
100.281
100.284
100.287
100.29
100.293
100.297
100.301
100.305
100.309
100.314
100.319
100.324
100.329
100.335
100.341
100.347
100.353
100.359
100.365
100.371
100.377
100.383
100.388
100.393
100.398
100.402
100.406
100.409
100.412
100.415
100.417
100.419
100.421
100.422
100.424
100.426
100.427
100.43
100.432
100.435
100.438
100.442
100.446
100.451
100.456
100.462
100.468
100.474
100.481
100.487
100.494
100.501
100.507
100.513
100.52
100.525
100.531
100.536
100.541
100.546
100.551
100.555
100.559
100.563
100.567
100.571
100.575
100.579
100.583
100.588
100.592
100.597
100.602
100.608
100.613
100.618
100.624
100.63
100.635
100.641
100.647
100.652
100.657
100.662
100.666
100.67
100.673
100.676
100.678
100.68
100.681
100.681
100.681
100.68
100.678
100.676
100.674
100.671
100.668
100.665
100.662
100.659
100.656
100.654
100.652
100.65
100.649
100.649
100.65
100.652
100.654
100.657
100.661
100.665
100.671
100.676
100.683
100.689
100.696
100.703
100.71
100.718
100.725
100.732
100.738
100.745
100.751
100.757
100.762
100.767
100.771
100.775
100.779
100.782
100.785
100.788
100.79
100.792
100.794
100.795
100.796
100.797
100.798
100.798
100.798
100.798
100.798
100.798
100.798
100.798
100.797
100.797
100.796
100.795
100.794
100.793
100.793
100.792
100.791
100.79
100.789
100.788
100.787
100.787
100.786
100.786
100.785
100.785
100.784
100.784
100.784
100.784
100.784
100.784
100.783
100.783
100.783
100.256
100.256
100.257
100.258
100.259
100.26
100.26
100.26
100.26
100.26
100.26
100.26
100.26
100.26
100.26
100.259
100.258
100.257
100.256
100.254
100.253
100.252
100.252
100.252
100.252
100.253
100.254
100.256
100.258
100.26
100.262
100.264
100.267
100.27
100.272
100.275
100.278
100.281
100.284
100.286
100.288
100.29
100.291
100.292
100.292
100.292
100.291
100.29
100.288
100.286
100.284
100.282
100.279
100.277
100.274
100.272
100.27
100.268
100.266
100.264
100.263
100.261
100.261
100.26
100.26
100.26
100.26
100.261
100.262
100.263
100.264
100.265
100.267
100.268
100.27
100.272
100.274
100.276
100.279
100.282
100.284
100.287
100.29
100.294
100.297
100.301
100.305
100.31
100.314
100.319
100.324
100.33
100.335
100.341
100.347
100.353
100.359
100.365
100.371
100.377
100.383
100.388
100.393
100.397
100.402
100.405
100.409
100.412
100.414
100.417
100.419
100.42
100.422
100.424
100.426
100.428
100.43
100.432
100.435
100.439
100.443
100.447
100.452
100.457
100.462
100.468
100.475
100.481
100.488
100.494
100.501
100.507
100.514
100.52
100.526
100.531
100.537
100.542
100.547
100.551
100.556
100.56
100.564
100.569
100.573
100.577
100.581
100.586
100.59
100.595
100.6
100.605
100.61
100.615
100.62
100.626
100.631
100.637
100.642
100.647
100.652
100.657
100.661
100.665
100.669
100.672
100.675
100.677
100.678
100.679
100.679
100.679
100.678
100.676
100.675
100.672
100.67
100.667
100.664
100.661
100.658
100.656
100.654
100.652
100.651
100.65
100.65
100.651
100.653
100.655
100.658
100.662
100.667
100.672
100.678
100.684
100.69
100.697
100.704
100.711
100.718
100.725
100.732
100.739
100.745
100.751
100.757
100.762
100.767
100.771
100.775
100.779
100.782
100.785
100.788
100.79
100.792
100.794
100.795
100.796
100.797
100.798
100.798
100.798
100.799
100.799
100.798
100.798
100.798
100.797
100.797
100.796
100.795
100.794
100.793
100.793
100.792
100.791
100.79
100.789
100.788
100.788
100.787
100.786
100.786
100.785
100.785
100.785
100.784
100.784
100.784
100.784
100.784
100.783
100.783
100.783
100.257
100.257
100.258
100.259
100.26
100.261
100.261
100.261
100.261
100.261
100.261
100.262
100.262
100.262
100.261
100.261
100.26
100.258
100.257
100.256
100.254
100.254
100.253
100.253
100.254
100.255
100.256
100.258
100.26
100.262
100.264
100.267
100.269
100.272
100.275
100.278
100.281
100.284
100.286
100.289
100.29
100.292
100.293
100.293
100.294
100.293
100.292
100.291
100.289
100.288
100.286
100.283
100.281
100.279
100.276
100.274
100.272
100.27
100.268
100.266
100.265
100.263
100.262
100.262
100.262
100.262
100.262
100.262
100.263
100.264
100.265
100.266
100.268
100.269
100.271
100.273
100.275
100.277
100.28
100.282
100.285
100.288
100.291
100.295
100.298
100.302
100.306
100.311
100.315
100.32
100.325
100.331
100.336
100.342
100.348
100.353
100.359
100.365
100.371
100.377
100.382
100.387
100.392
100.397
100.401
100.405
100.408
100.411
100.414
100.416
100.418
100.42
100.422
100.424
100.426
100.428
100.43
100.433
100.436
100.44
100.443
100.448
100.452
100.457
100.463
100.469
100.475
100.481
100.488
100.494
100.501
100.507
100.513
100.52
100.526
100.531
100.537
100.542
100.547
100.552
100.557
100.562
100.566
100.571
100.575
100.58
100.584
100.589
100.594
100.598
100.603
100.608
100.613
100.618
100.623
100.628
100.633
100.638
100.643
100.648
100.653
100.657
100.661
100.665
100.668
100.671
100.673
100.675
100.676
100.677
100.677
100.676
100.675
100.674
100.672
100.67
100.668
100.665
100.663
100.66
100.658
100.655
100.654
100.652
100.651
100.651
100.651
100.653
100.654
100.657
100.66
100.664
100.668
100.674
100.679
100.685
100.692
100.698
100.705
100.712
100.719
100.726
100.733
100.739
100.745
100.751
100.757
100.762
100.767
100.771
100.775
100.779
100.782
100.785
100.788
100.79
100.792
100.794
100.795
100.796
100.797
100.798
100.798
100.798
100.798
100.798
100.798
100.798
100.798
100.797
100.796
100.796
100.795
100.794
100.793
100.793
100.792
100.791
100.79
100.789
100.788
100.788
100.787
100.786
100.786
100.785
100.785
100.785
100.784
100.784
100.784
100.784
100.783
100.783
100.783
100.783
100.258
100.258
100.259
100.261
100.262
100.262
100.263
100.263
100.263
100.263
100.264
100.264
100.264
100.264
100.264
100.263
100.262
100.26
100.259
100.257
100.256
100.255
100.254
100.255
100.255
100.256
100.258
100.26
100.262
100.264
100.267
100.27
100.272
100.275
100.278
100.281
100.284
100.287
100.289
100.291
100.293
100.294
100.295
100.295
100.295
100.295
100.294
100.292
100.291
100.289
100.287
100.285
100.283
100.28
100.278
100.276
100.274
100.272
100.27
100.268
100.267
100.266
100.265
100.264
100.264
100.264
100.264
100.264
100.265
100.266
100.267
100.268
100.269
100.271
100.272
100.274
100.276
100.278
100.281
100.283
100.286
100.289
100.292
100.296
100.299
100.303
100.307
100.312
100.316
100.321
100.326
100.331
100.337
100.342
100.348
100.354
100.359
100.365
100.371
100.376
100.382
100.387
100.391
100.396
100.4
100.404
100.407
100.41
100.413
100.415
100.418
100.42
100.422
100.424
100.426
100.428
100.431
100.434
100.437
100.44
100.444
100.448
100.453
100.458
100.464
100.469
100.475
100.481
100.488
100.494
100.501
100.507
100.513
100.52
100.526
100.532
100.537
100.543
100.549
100.554
100.559
100.564
100.569
100.574
100.579
100.584
100.588
100.593
100.598
100.603
100.607
100.612
100.617
100.622
100.626
100.631
100.636
100.64
100.645
100.649
100.653
100.657
100.66
100.663
100.666
100.668
100.67
100.672
100.673
100.673
100.673
100.673
100.672
100.67
100.669
100.667
100.665
100.663
100.66
100.658
100.656
100.654
100.653
100.652
100.652
100.652
100.652
100.654
100.656
100.659
100.662
100.666
100.671
100.676
100.681
100.687
100.693
100.7
100.707
100.713
100.72
100.727
100.733
100.739
100.746
100.751
100.757
100.762
100.767
100.771
100.775
100.779
100.782
100.785
100.788
100.79
100.792
100.794
100.795
100.796
100.797
100.798
100.798
100.798
100.798
100.798
100.798
100.798
100.797
100.797
100.796
100.795
100.795
100.794
100.793
100.792
100.792
100.791
100.79
100.789
100.789
100.788
100.787
100.787
100.786
100.786
100.785
100.785
100.784
100.784
100.784
100.783
100.783
100.783
100.783
100.783
100.258
100.259
100.26
100.262
100.263
100.264
100.265
100.265
100.265
100.266
100.266
100.266
100.266
100.266
100.266
100.265
100.264
100.262
100.26
100.258
100.257
100.256
100.256
100.256
100.256
100.258
100.259
100.262
100.264
100.267
100.269
100.272
100.275
100.278
100.281
100.284
100.287
100.29
100.292
100.294
100.295
100.296
100.297
100.297
100.297
100.296
100.295
100.294
100.292
100.29
100.288
100.286
100.284
100.282
100.28
100.278
100.276
100.274
100.272
100.271
100.269
100.268
100.267
100.267
100.266
100.266
100.266
100.266
100.267
100.267
100.268
100.269
100.271
100.272
100.274
100.275
100.277
100.28
100.282
100.285
100.287
100.29
100.294
100.297
100.301
100.305
100.309
100.313
100.317
100.322
100.327
100.332
100.337
100.343
100.348
100.354
100.359
100.364
100.37
100.375
100.38
100.385
100.39
100.394
100.398
100.402
100.405
100.408
100.411
100.414
100.417
100.419
100.421
100.424
100.426
100.428
100.431
100.434
100.437
100.441
100.445
100.449
100.454
100.459
100.464
100.47
100.475
100.482
100.488
100.494
100.5
100.507
100.513
100.52
100.526
100.532
100.538
100.544
100.55
100.556
100.561
100.567
100.572
100.577
100.583
100.588
100.593
100.598
100.602
100.607
100.612
100.617
100.621
100.626
100.63
100.634
100.639
100.643
100.647
100.65
100.654
100.657
100.66
100.662
100.664
100.666
100.668
100.669
100.669
100.67
100.669
100.669
100.668
100.666
100.665
100.663
100.661
100.659
100.657
100.655
100.654
100.653
100.652
100.651
100.651
100.652
100.653
100.655
100.657
100.66
100.664
100.668
100.673
100.678
100.683
100.689
100.695
100.702
100.708
100.715
100.721
100.728
100.734
100.74
100.746
100.751
100.757
100.762
100.767
100.771
100.775
100.779
100.782
100.785
100.787
100.79
100.792
100.793
100.795
100.796
100.797
100.797
100.798
100.798
100.798
100.798
100.798
100.797
100.797
100.796
100.796
100.795
100.794
100.794
100.793
100.792
100.792
100.791
100.79
100.789
100.789
100.788
100.787
100.787
100.786
100.786
100.785
100.785
100.784
100.784
100.783
100.783
100.783
100.783
100.783
100.783
100.259
100.26
100.261
100.262
100.264
100.265
100.266
100.267
100.267
100.268
100.268
100.268
100.269
100.268
100.268
100.267
100.265
100.263
100.261
100.26
100.258
100.257
100.257
100.257
100.257
100.259
100.261
100.263
100.266
100.269
100.272
100.275
100.278
100.281
100.284
100.287
100.29
100.292
100.294
100.296
100.297
100.298
100.299
100.298
100.298
100.297
100.296
100.295
100.293
100.291
100.289
100.287
100.285
100.283
100.281
100.279
100.278
100.276
100.274
100.273
100.271
100.27
100.269
100.269
100.268
100.268
100.268
100.268
100.268
100.269
100.27
100.271
100.272
100.273
100.275
100.277
100.279
100.281
100.283
100.286
100.289
100.292
100.295
100.298
100.302
100.306
100.31
100.314
100.319
100.323
100.328
100.333
100.338
100.343
100.348
100.353
100.358
100.363
100.368
100.373
100.378
100.383
100.387
100.391
100.395
100.399
100.403
100.406
100.409
100.412
100.415
100.418
100.42
100.423
100.425
100.428
100.431
100.434
100.438
100.441
100.445
100.45
100.454
100.459
100.465
100.47
100.476
100.482
100.488
100.494
100.501
100.507
100.514
100.52
100.527
100.533
100.54
100.546
100.552
100.558
100.564
100.57
100.576
100.581
100.587
100.592
100.597
100.602
100.607
100.612
100.617
100.621
100.626
100.63
100.634
100.638
100.642
100.645
100.648
100.652
100.654
100.657
100.659
100.661
100.663
100.664
100.665
100.666
100.666
100.666
100.665
100.664
100.663
100.662
100.66
100.659
100.657
100.655
100.654
100.652
100.651
100.65
100.65
100.65
100.65
100.651
100.653
100.655
100.658
100.661
100.665
100.67
100.674
100.68
100.685
100.691
100.697
100.703
100.71
100.716
100.722
100.728
100.735
100.741
100.746
100.752
100.757
100.762
100.766
100.771
100.775
100.778
100.782
100.785
100.787
100.79
100.792
100.793
100.795
100.796
100.797
100.797
100.798
100.798
100.798
100.798
100.798
100.797
100.797
100.796
100.796
100.795
100.794
100.793
100.793
100.792
100.791
100.791
100.79
100.789
100.789
100.788
100.787
100.787
100.786
100.785
100.785
100.784
100.784
100.784
100.783
100.783
100.783
100.782
100.782
100.782
100.259
100.26
100.261
100.263
100.265
100.266
100.267
100.268
100.269
100.27
100.27
100.27
100.271
100.27
100.27
100.268
100.267
100.265
100.263
100.261
100.259
100.258
100.257
100.257
100.258
100.26
100.262
100.265
100.268
100.271
100.274
100.277
100.281
100.284
100.287
100.29
100.292
100.295
100.297
100.298
100.299
100.3
100.3
100.3
100.299
100.298
100.297
100.295
100.293
100.292
100.29
100.288
100.286
100.284
100.282
100.281
100.279
100.277
100.276
100.275
100.273
100.272
100.271
100.271
100.27
100.27
100.27
100.27
100.27
100.271
100.271
100.272
100.273
100.275
100.276
100.278
100.28
100.282
100.285
100.287
100.29
100.293
100.297
100.3
100.304
100.307
100.311
100.315
100.32
100.324
100.328
100.333
100.337
100.342
100.347
100.352
100.356
100.361
100.366
100.371
100.375
100.38
100.384
100.388
100.392
100.396
100.4
100.403
100.407
100.41
100.413
100.416
100.419
100.422
100.425
100.428
100.431
100.435
100.438
100.442
100.446
100.45
100.455
100.46
100.465
100.471
100.477
100.483
100.489
100.495
100.502
100.508
100.515
100.522
100.529
100.535
100.542
100.549
100.555
100.561
100.568
100.574
100.58
100.585
100.591
100.596
100.602
100.607
100.612
100.617
100.621
100.626
100.63
100.634
100.638
100.641
100.645
100.648
100.651
100.653
100.656
100.658
100.659
100.661
100.662
100.663
100.663
100.663
100.663
100.662
100.661
100.66
100.659
100.657
100.656
100.654
100.652
100.651
100.65
100.649
100.648
100.647
100.647
100.648
100.649
100.65
100.653
100.655
100.658
100.662
100.666
100.671
100.676
100.681
100.687
100.693
100.699
100.705
100.711
100.717
100.723
100.729
100.735
100.741
100.747
100.752
100.757
100.762
100.766
100.771
100.775
100.778
100.781
100.784
100.787
100.789
100.791
100.793
100.794
100.795
100.796
100.797
100.797
100.798
100.798
100.797
100.797
100.797
100.796
100.796
100.795
100.795
100.794
100.793
100.793
100.792
100.791
100.79
100.79
100.789
100.788
100.788
100.787
100.786
100.786
100.785
100.785
100.784
100.784
100.783
100.783
100.782
100.782
100.782
100.782
100.782
100.259
100.26
100.261
100.263
100.265
100.267
100.268
100.269
100.27
100.271
100.272
100.272
100.272
100.272
100.271
100.27
100.268
100.266
100.263
100.261
100.259
100.258
100.258
100.258
100.259
100.26
100.263
100.266
100.269
100.272
100.276
100.279
100.283
100.286
100.289
100.292
100.295
100.297
100.298
100.3
100.301
100.301
100.301
100.3
100.299
100.298
100.297
100.295
100.294
100.292
100.29
100.288
100.287
100.285
100.283
100.282
100.28
100.279
100.278
100.276
100.275
100.274
100.273
100.272
100.272
100.272
100.271
100.271
100.271
100.272
100.273
100.273
100.274
100.276
100.277
100.279
100.281
100.284
100.286
100.289
100.292
100.295
100.298
100.302
100.305
100.309
100.313
100.317
100.321
100.325
100.329
100.333
100.337
100.341
100.345
100.35
100.354
100.359
100.363
100.367
100.372
100.376
100.38
100.385
100.389
100.393
100.397
100.4
100.404
100.408
100.411
100.414
100.418
100.421
100.424
100.428
100.431
100.435
100.439
100.443
100.447
100.451
100.456
100.461
100.467
100.472
100.478
100.484
100.491
100.497
100.504
100.511
100.518
100.524
100.531
100.538
100.545
100.552
100.559
100.565
100.571
100.578
100.584
100.59
100.595
100.601
100.606
100.611
100.616
100.621
100.625
100.629
100.633
100.637
100.641
100.644
100.647
100.65
100.653
100.655
100.657
100.658
100.66
100.661
100.661
100.661
100.661
100.661
100.66
100.659
100.658
100.656
100.655
100.653
100.651
100.65
100.648
100.647
100.645
100.645
100.644
100.644
100.644
100.645
100.647
100.649
100.651
100.654
100.658
100.662
100.667
100.671
100.677
100.682
100.688
100.694
100.7
100.706
100.712
100.718
100.725
100.731
100.736
100.742
100.747
100.753
100.757
100.762
100.767
100.771
100.774
100.778
100.781
100.784
100.787
100.789
100.791
100.793
100.794
100.795
100.796
100.797
100.797
100.797
100.797
100.797
100.797
100.796
100.796
100.796
100.795
100.794
100.794
100.793
100.792
100.792
100.791
100.79
100.79
100.789
100.788
100.788
100.787
100.786
100.786
100.785
100.784
100.784
100.783
100.783
100.782
100.782
100.782
100.782
100.781
100.781
100.259
100.26
100.261
100.263
100.265
100.267
100.269
100.27
100.271
100.272
100.273
100.274
100.274
100.274
100.273
100.271
100.269
100.267
100.264
100.262
100.26
100.258
100.258
100.258
100.259
100.261
100.263
100.266
100.27
100.273
100.277
100.281
100.284
100.288
100.291
100.294
100.296
100.298
100.3
100.301
100.302
100.302
100.302
100.301
100.3
100.299
100.297
100.296
100.294
100.292
100.291
100.289
100.287
100.286
100.284
100.283
100.281
100.28
100.279
100.278
100.277
100.276
100.275
100.274
100.273
100.273
100.273
100.273
100.273
100.273
100.274
100.274
100.276
100.277
100.279
100.28
100.283
100.285
100.288
100.29
100.293
100.297
100.3
100.303
100.307
100.31
100.314
100.318
100.321
100.325
100.328
100.332
100.336
100.34
100.344
100.347
100.351
100.356
100.36
100.364
100.368
100.372
100.377
100.381
100.385
100.39
100.394
100.398
100.402
100.406
100.409
100.413
100.417
100.421
100.424
100.428
100.432
100.436
100.44
100.444
100.448
100.453
100.458
100.463
100.469
100.474
100.481
100.487
100.493
100.5
100.507
100.514
100.521
100.528
100.535
100.542
100.549
100.556
100.563
100.569
100.576
100.582
100.588
100.594
100.599
100.605
100.61
100.615
100.62
100.624
100.629
100.633
100.637
100.641
100.644
100.647
100.65
100.653
100.655
100.657
100.658
100.66
100.66
100.661
100.661
100.661
100.66
100.659
100.658
100.657
100.655
100.653
100.651
100.649
100.647
100.645
100.644
100.642
100.641
100.641
100.64
100.641
100.641
100.643
100.644
100.647
100.65
100.653
100.657
100.661
100.666
100.671
100.677
100.683
100.689
100.695
100.701
100.707
100.713
100.72
100.726
100.732
100.737
100.743
100.748
100.753
100.758
100.763
100.767
100.771
100.775
100.778
100.781
100.784
100.786
100.789
100.79
100.792
100.793
100.795
100.795
100.796
100.796
100.797
100.797
100.797
100.797
100.796
100.796
100.795
100.795
100.794
100.794
100.793
100.792
100.792
100.791
100.79
100.79
100.789
100.788
100.788
100.787
100.786
100.786
100.785
100.784
100.784
100.783
100.783
100.782
100.782
100.782
100.781
100.781
100.781
100.258
100.26
100.261
100.264
100.266
100.268
100.27
100.271
100.272
100.273
100.274
100.275
100.275
100.275
100.274
100.272
100.27
100.268
100.265
100.262
100.26
100.259
100.258
100.259
100.26
100.262
100.264
100.267
100.271
100.274
100.278
100.282
100.286
100.289
100.293
100.295
100.298
100.3
100.301
100.302
100.303
100.303
100.303
100.302
100.301
100.299
100.298
100.296
100.294
100.293
100.291
100.289
100.288
100.287
100.285
100.284
100.283
100.281
100.28
100.279
100.278
100.277
100.276
100.275
100.274
100.274
100.274
100.273
100.274
100.274
100.274
100.275
100.276
100.278
100.28
100.282
100.284
100.286
100.289
100.292
100.295
100.298
100.301
100.305
100.308
100.311
100.315
100.318
100.321
100.324
100.328
100.331
100.334
100.338
100.341
100.345
100.348
100.352
100.356
100.36
100.365
100.369
100.373
100.378
100.382
100.387
100.391
100.396
100.4
100.404
100.409
100.413
100.417
100.421
100.425
100.429
100.433
100.437
100.441
100.446
100.45
100.455
100.46
100.466
100.472
100.478
100.484
100.49
100.497
100.504
100.511
100.519
100.526
100.533
100.54
100.547
100.554
100.561
100.568
100.574
100.581
100.587
100.592
100.598
100.604
100.609
100.614
100.619
100.623
100.628
100.632
100.636
100.64
100.643
100.647
100.65
100.652
100.655
100.657
100.659
100.66
100.661
100.661
100.662
100.661
100.661
100.66
100.658
100.657
100.655
100.653
100.651
100.648
100.646
100.644
100.642
100.64
100.639
100.638
100.637
100.637
100.637
100.638
100.64
100.642
100.644
100.647
100.651
100.655
100.66
100.665
100.671
100.677
100.683
100.689
100.695
100.702
100.708
100.714
100.721
100.727
100.733
100.738
100.744
100.749
100.754
100.759
100.763
100.767
100.771
100.775
100.778
100.781
100.784
100.786
100.788
100.79
100.791
100.793
100.794
100.795
100.795
100.796
100.796
100.796
100.796
100.796
100.796
100.796
100.795
100.795
100.795
100.794
100.793
100.793
100.792
100.791
100.791
100.79
100.789
100.788
100.788
100.787
100.786
100.786
100.785
100.784
100.784
100.783
100.783
100.782
100.782
100.782
100.782
100.781
100.781
100.258
100.26
100.261
100.264
100.266
100.268
100.27
100.272
100.273
100.274
100.275
100.276
100.276
100.276
100.275
100.273
100.271
100.268
100.266
100.263
100.261
100.259
100.259
100.259
100.26
100.262
100.265
100.268
100.271
100.275
100.279
100.283
100.287
100.29
100.294
100.297
100.299
100.301
100.302
100.303
100.304
100.304
100.303
100.302
100.301
100.3
100.298
100.297
100.295
100.293
100.292
100.29
100.289
100.287
100.286
100.285
100.284
100.282
100.281
100.28
100.279
100.278
100.277
100.276
100.275
100.275
100.274
100.274
100.274
100.274
100.275
100.276
100.277
100.279
100.28
100.282
100.285
100.287
100.29
100.293
100.296
100.299
100.302
100.305
100.308
100.312
100.315
100.317
100.32
100.323
100.326
100.329
100.332
100.335
100.338
100.342
100.345
100.349
100.353
100.357
100.361
100.366
100.37
100.375
100.38
100.385
100.39
100.395
100.399
100.404
100.409
100.413
100.417
100.422
100.426
100.43
100.434
100.439
100.443
100.448
100.453
100.458
100.464
100.469
100.475
100.482
100.488
100.495
100.502
100.509
100.517
100.524
100.531
100.539
100.546
100.553
100.56
100.566
100.573
100.579
100.585
100.591
100.597
100.602
100.607
100.612
100.617
100.622
100.626
100.631
100.635
100.639
100.642
100.646
100.649
100.652
100.655
100.657
100.659
100.66
100.662
100.662
100.663
100.663
100.662
100.661
100.66
100.658
100.656
100.654
100.651
100.649
100.646
100.644
100.641
100.639
100.637
100.636
100.634
100.634
100.633
100.634
100.635
100.636
100.639
100.641
100.645
100.649
100.653
100.658
100.664
100.669
100.676
100.682
100.688
100.695
100.702
100.708
100.715
100.721
100.728
100.734
100.739
100.745
100.75
100.755
100.76
100.764
100.768
100.772
100.775
100.778
100.781
100.783
100.786
100.788
100.789
100.791
100.792
100.793
100.794
100.795
100.795
100.796
100.796
100.796
100.796
100.796
100.796
100.796
100.795
100.795
100.794
100.794
100.793
100.792
100.792
100.791
100.79
100.789
100.789
100.788
100.787
100.787
100.786
100.785
100.785
100.784
100.784
100.783
100.783
100.782
100.782
100.782
100.782
100.782
100.258
100.26
100.262
100.264
100.266
100.269
100.27
100.272
100.274
100.275
100.276
100.277
100.277
100.277
100.276
100.274
100.272
100.269
100.266
100.264
100.262
100.26
100.259
100.26
100.261
100.263
100.265
100.268
100.272
100.276
100.28
100.284
100.287
100.291
100.294
100.297
100.3
100.302
100.303
100.304
100.304
100.304
100.304
100.303
100.302
100.3
100.299
100.297
100.296
100.294
100.292
100.291
100.289
100.288
100.287
100.286
100.284
100.283
100.282
100.281
100.279
100.278
100.277
100.276
100.275
100.275
100.274
100.274
100.274
100.274
100.275
100.276
100.277
100.279
100.281
100.283
100.285
100.288
100.291
100.293
100.296
100.299
100.302
100.305
100.308
100.311
100.313
100.316
100.319
100.321
100.324
100.326
100.329
100.332
100.335
100.338
100.342
100.346
100.35
100.354
100.359
100.363
100.368
100.374
100.379
100.384
100.389
100.395
100.4
100.405
100.41
100.414
100.419
100.424
100.428
100.433
100.437
100.442
100.446
100.451
100.456
100.462
100.468
100.473
100.48
100.486
100.493
100.5
100.507
100.515
100.522
100.53
100.537
100.544
100.552
100.558
100.565
100.572
100.578
100.584
100.59
100.595
100.6
100.606
100.61
100.615
100.62
100.624
100.629
100.633
100.637
100.641
100.644
100.648
100.651
100.654
100.657
100.659
100.661
100.662
100.663
100.664
100.664
100.663
100.663
100.661
100.66
100.658
100.656
100.653
100.65
100.647
100.645
100.642
100.639
100.637
100.635
100.633
100.631
100.631
100.63
100.631
100.632
100.633
100.635
100.638
100.642
100.646
100.65
100.656
100.661
100.667
100.674
100.68
100.687
100.694
100.701
100.708
100.715
100.722
100.728
100.734
100.74
100.746
100.751
100.756
100.761
100.765
100.769
100.772
100.776
100.778
100.781
100.783
100.785
100.787
100.789
100.79
100.792
100.793
100.793
100.794
100.795
100.795
100.796
100.796
100.796
100.796
100.796
100.796
100.795
100.795
100.795
100.794
100.794
100.793
100.792
100.791
100.791
100.79
100.789
100.788
100.788
100.787
100.786
100.786
100.785
100.785
100.784
100.784
100.783
100.783
100.783
100.783
100.783
100.782
100.259
100.26
100.262
100.264
100.266
100.269
100.271
100.272
100.274
100.275
100.276
100.277
100.277
100.277
100.276
100.274
100.272
100.27
100.267
100.264
100.262
100.261
100.26
100.26
100.261
100.263
100.265
100.269
100.272
100.276
100.28
100.284
100.288
100.291
100.294
100.297
100.3
100.302
100.303
100.304
100.304
100.304
100.304
100.303
100.302
100.301
100.299
100.298
100.296
100.295
100.293
100.291
100.29
100.289
100.287
100.286
100.285
100.283
100.282
100.28
100.279
100.278
100.277
100.275
100.275
100.274
100.273
100.273
100.273
100.274
100.274
100.275
100.277
100.278
100.28
100.282
100.285
100.287
100.29
100.293
100.296
100.298
100.301
100.304
100.306
100.309
100.311
100.314
100.316
100.318
100.321
100.323
100.326
100.328
100.332
100.335
100.339
100.343
100.347
100.352
100.357
100.362
100.368
100.373
100.379
100.385
100.39
100.396
100.401
100.407
100.412
100.417
100.422
100.426
100.431
100.436
100.44
100.445
100.45
100.455
100.46
100.466
100.472
100.478
100.485
100.492
100.499
100.506
100.513
100.521
100.528
100.536
100.543
100.55
100.557
100.564
100.57
100.576
100.582
100.588
100.594
100.599
100.604
100.609
100.613
100.618
100.622
100.626
100.631
100.635
100.639
100.642
100.646
100.65
100.653
100.656
100.658
100.66
100.662
100.664
100.665
100.665
100.665
100.665
100.664
100.662
100.66
100.658
100.656
100.653
100.65
100.647
100.644
100.641
100.638
100.635
100.632
100.63
100.629
100.628
100.627
100.627
100.628
100.63
100.632
100.635
100.638
100.642
100.647
100.652
100.658
100.665
100.671
100.678
100.685
100.693
100.7
100.707
100.714
100.721
100.728
100.735
100.741
100.746
100.752
100.757
100.761
100.766
100.769
100.773
100.776
100.779
100.781
100.783
100.785
100.787
100.789
100.79
100.791
100.792
100.793
100.794
100.794
100.795
100.795
100.796
100.796
100.796
100.796
100.796
100.796
100.795
100.795
100.795
100.794
100.793
100.793
100.792
100.791
100.79
100.79
100.789
100.788
100.787
100.787
100.786
100.786
100.785
100.785
100.784
100.784
100.784
100.784
100.783
100.783
100.783
100.259
100.26
100.262
100.264
100.266
100.268
100.27
100.272
100.274
100.275
100.276
100.277
100.277
100.277
100.276
100.274
100.272
100.27
100.267
100.264
100.262
100.261
100.26
100.26
100.261
100.263
100.265
100.268
100.272
100.276
100.279
100.283
100.287
100.29
100.294
100.296
100.299
100.301
100.302
100.303
100.304
100.304
100.304
100.303
100.302
100.301
100.299
100.298
100.296
100.295
100.293
100.292
100.29
100.289
100.287
100.286
100.284
100.283
100.281
100.28
100.278
100.277
100.275
100.274
100.273
100.272
100.272
100.272
100.272
100.272
100.273
100.274
100.275
100.277
100.279
100.281
100.283
100.286
100.289
100.291
100.294
100.296