# vtk DataFile Version 2.0
HPC Tutorials: Michael Bader, Kaveh Rahnema, Oliver Meister
ASCII
DATASET RECTILINEAR_GRID
DIMENSIONS 257 257 1
X_COORDINATES 257 float
0
0.005
0.01
0.015
0.02
0.025
0.03
0.035
0.04
0.045
0.05
0.055
0.06
0.065
0.07
0.075
0.08
0.085
0.09
0.095
0.1
0.105
0.11
0.115
0.12
0.125
0.13
0.135
0.14
0.145
0.15
0.155
0.16
0.165
0.17
0.175
0.18
0.185
0.19
0.195
0.2
0.205
0.21
0.215
0.22
0.225
0.23
0.235
0.24
0.245
0.25
0.255
0.26
0.265
0.27
0.275
0.28
0.285
0.29
0.295
0.3
0.305
0.31
0.315
0.32
0.325
0.33
0.335
0.34
0.345
0.35
0.355
0.36
0.365
0.37
0.375
0.38
0.385
0.39
0.395
0.4
0.405
0.41
0.415
0.42
0.425
0.43
0.435
0.44
0.445
0.45
0.455
0.46
0.465
0.47
0.475
0.48
0.485
0.49
0.495
0.5
0.505
0.51
0.515
0.52
0.525
0.53
0.535
0.54
0.545
0.55
0.555
0.56
0.565
0.57
0.575
0.58
0.585
0.59
0.595
0.6
0.605
0.61
0.615
0.62
0.625
0.63
0.635
0.64
0.645
0.65
0.655
0.66
0.665
0.67
0.675
0.68
0.685
0.69
0.695
0.7
0.705
0.71
0.715
0.72
0.725
0.73
0.735
0.74
0.745
0.75
0.755
0.76
0.765
0.77
0.775
0.78
0.785
0.79
0.795
0.8
0.805
0.81
0.815
0.82
0.825
0.83
0.835
0.84
0.845
0.85
0.855
0.86
0.865
0.87
0.875
0.88
0.885
0.89
0.895
0.9
0.905
0.91
0.915
0.92
0.925
0.93
0.935
0.94
0.945
0.95
0.955
0.96
0.965
0.97
0.975
0.98
0.985
0.99
0.995
1
1.005
1.01
1.015
1.02
1.025
1.03
1.035
1.04
1.045
1.05
1.055
1.06
1.065
1.07
1.075
1.08
1.085
1.09
1.095
1.1
1.105
1.11
1.115
1.12
1.125
1.13
1.135
1.14
1.145
1.15
1.155
1.16
1.165
1.17
1.175
1.18
1.185
1.19
1.195
1.2
1.205
1.21
1.215
1.22
1.225
1.23
1.235
1.24
1.245
1.25
1.255
1.26
1.265
1.27
1.275
1.28
Y_COORDINATES 257 float
0
0.005
0.01
0.015
0.02
0.025
0.03
0.035
0.04
0.045
0.05
0.055
0.06
0.065
0.07
0.075
0.08
0.085
0.09
0.095
0.1
0.105
0.11
0.115
0.12
0.125
0.13
0.135
0.14
0.145
0.15
0.155
0.16
0.165
0.17
0.175
0.18
0.185
0.19
0.195
0.2
0.205
0.21
0.215
0.22
0.225
0.23
0.235
0.24
0.245
0.25
0.255
0.26
0.265
0.27
0.275
0.28
0.285
0.29
0.295
0.3
0.305
0.31
0.315
0.32
0.325
0.33
0.335
0.34
0.345
0.35
0.355
0.36
0.365
0.37
0.375
0.38
0.385
0.39
0.395
0.4
0.405
0.41
0.415
0.42
0.425
0.43
0.435
0.44
0.445
0.45
0.455
0.46
0.465
0.47
0.475
0.48
0.485
0.49
0.495
0.5
0.505
0.51
0.515
0.52
0.525
0.53
0.535
0.54
0.545
0.55
0.555
0.56
0.565
0.57
0.575
0.58
0.585
0.59
0.595
0.6
0.605
0.61
0.615
0.62
0.625
0.63
0.635
0.64
0.645
0.65
0.655
0.66
0.665
0.67
0.675
0.68
0.685
0.69
0.695
0.7
0.705
0.71
0.715
0.72
0.725
0.73
0.735
0.74
0.745
0.75
0.755
0.76
0.765
0.77
0.775
0.78
0.785
0.79
0.795
0.8
0.805
0.81
0.815
0.82
0.825
0.83
0.835
0.84
0.845
0.85
0.855
0.86
0.865
0.87
0.875
0.88
0.885
0.89
0.895
0.9
0.905
0.91
0.915
0.92
0.925
0.93
0.935
0.94
0.945
0.95
0.955
0.96
0.965
0.97
0.975
0.98
0.985
0.99
0.995
1
1.005
1.01
1.015
1.02
1.025
1.03
1.035
1.04
1.045
1.05
1.055
1.06
1.065
1.07
1.075
1.08
1.085
1.09
1.095
1.1
1.105
1.11
1.115
1.12
1.125
1.13
1.135
1.14
1.145
1.15
1.155
1.16
1.165
1.17
1.175
1.18
1.185
1.19
1.195
1.2
1.205
1.21
1.215
1.22
1.225
1.23
1.235
1.24
1.245
1.25
1.255
1.26
1.265
1.27
1.275
1.28
Z_COORDINATES 1 float
0
CELL_DATA 65536
SCALARS H float 1
LOOKUP_TABLE default
100.025
100.026
100.027
100.029
100.031
100.034
100.037
100.041
100.045
100.05
100.055
100.06
100.065
100.071
100.077
100.083
100.089
100.096
100.103
100.11
100.118
100.126
100.135
100.144
100.153
100.163
100.174
100.186
100.198
100.212
100.226
100.241
100.258
100.275
100.294
100.313
100.333
100.353
100.373
100.393
100.412
100.429
100.445
100.458
100.468
100.475
100.478
100.478
100.474
100.466
100.455
100.44
100.422
100.401
100.378
100.353
100.326
100.299
100.271
100.243
100.215
100.188
100.162
100.137
100.115
100.094
100.075
100.059
100.045
100.034
100.025
100.019
100.015
100.014
100.015
100.018
100.023
100.03
100.037
100.046
100.054
100.063
100.072
100.08
100.087
100.093
100.098
100.101
100.103
100.103
100.102
100.1
100.096
100.091
100.085
100.079
100.072
100.064
100.057
100.049
100.042
100.036
100.03
100.025
100.021
100.017
100.015
100.015
100.015
100.017
100.021
100.025
100.031
100.039
100.048
100.058
100.07
100.083
100.097
100.113
100.13
100.147
100.166
100.185
100.206
100.227
100.248
100.27
100.293
100.315
100.338
100.361
100.384
100.406
100.428
100.45
100.471
100.492
100.512
100.531
100.549
100.566
100.582
100.598
100.612
100.626
100.638
100.649
100.66
100.669
100.678
100.685
100.692
100.698
100.703
100.708
100.712
100.715
100.718
100.721
100.723
100.724
100.725
100.726
100.727
100.727
100.727
100.726
100.726
100.725
100.723
100.722
100.72
100.718
100.715
100.712
100.709
100.706
100.702
100.697
100.693
100.688
100.682
100.676
100.67
100.664
100.657
100.65
100.642
100.635
100.627
100.619
100.61
100.602
100.593
100.585
100.576
100.567
100.559
100.55
100.541
100.533
100.525
100.517
100.509
100.501
100.494
100.487
100.481
100.475
100.47
100.466
100.462
100.46
100.458
100.457
100.457
100.459
100.461
100.465
100.47
100.477
100.484
100.493
100.504
100.516
100.528
100.543
100.558
100.574
100.591
100.61
100.628
100.648
100.668
100.688
100.709
100.729
100.75
100.77
100.79
100.809
100.827
100.845
100.862
100.878
100.893
100.906
100.919
100.929
100.939
100.947
100.953
100.957
100.96
100.961
100.025
100.026
100.027
100.029
100.032
100.034
100.038
100.041
100.046
100.05
100.055
100.06
100.065
100.071
100.077
100.083
100.09
100.096
100.103
100.111
100.119
100.127
100.135
100.145
100.154
100.165
100.176
100.187
100.2
100.214
100.228
100.244
100.26
100.278
100.296
100.315
100.334
100.354
100.373
100.392
100.41
100.426
100.441
100.453
100.462
100.468
100.471
100.47
100.466
100.458
100.447
100.432
100.415
100.395
100.372
100.348
100.323
100.296
100.269
100.242
100.215
100.189
100.164
100.14
100.118
100.098
100.08
100.064
100.051
100.04
100.031
100.025
100.022
100.021
100.022
100.024
100.029
100.035
100.041
100.049
100.057
100.065
100.073
100.08
100.086
100.092
100.096
100.099
100.1
100.1
100.099
100.097
100.093
100.089
100.083
100.077
100.07
100.063
100.056
100.049
100.042
100.036
100.03
100.025
100.021
100.018
100.016
100.015
100.016
100.018
100.021
100.026
100.032
100.04
100.049
100.059
100.071
100.084
100.098
100.113
100.13
100.148
100.166
100.186
100.206
100.227
100.248
100.27
100.293
100.315
100.338
100.361
100.383
100.406
100.428
100.45
100.471
100.491
100.511
100.53
100.548
100.565
100.582
100.597
100.611
100.625
100.637
100.648
100.659
100.668
100.677
100.684
100.691
100.697
100.702
100.707
100.711
100.714
100.717
100.72
100.722
100.723
100.724
100.725
100.725
100.726
100.726
100.725
100.724
100.723
100.722
100.721
100.719
100.717
100.714
100.711
100.708
100.705
100.701
100.696
100.692
100.687
100.682
100.676
100.67
100.663
100.657
100.65
100.642
100.635
100.627
100.619
100.611
100.602
100.594
100.585
100.577
100.568
100.559
100.551
100.542
100.534
100.525
100.517
100.51
100.502
100.495
100.488
100.482
100.477
100.471
100.467
100.464
100.461
100.459
100.458
100.459
100.46
100.462
100.466
100.471
100.478
100.485
100.494
100.505
100.516
100.529
100.543
100.558
100.575
100.592
100.61
100.629
100.648
100.668
100.688
100.708
100.729
100.749
100.769
100.789
100.808
100.827
100.845
100.861
100.877
100.892
100.906
100.918
100.928
100.938
100.945
100.952
100.956
100.959
100.96
100.026
100.027
100.028
100.03
100.032
100.035
100.038
100.042
100.046
100.05
100.055
100.06
100.065
100.071
100.077
100.083
100.09
100.097
100.104
100.112
100.12
100.128
100.137
100.146
100.156
100.167
100.178
100.19
100.203
100.217
100.231
100.247
100.263
100.281
100.298
100.317
100.335
100.354
100.372
100.39
100.406
100.421
100.434
100.445
100.453
100.458
100.46
100.458
100.454
100.446
100.435
100.421
100.405
100.386
100.364
100.342
100.317
100.292
100.267
100.241
100.216
100.191
100.167
100.145
100.124
100.105
100.088
100.073
100.06
100.05
100.042
100.036
100.032
100.031
100.031
100.033
100.037
100.042
100.047
100.054
100.06
100.067
100.074
100.08
100.085
100.089
100.093
100.095
100.096
100.096
100.095
100.093
100.089
100.085
100.08
100.074
100.068
100.062
100.055
100.048
100.042
100.036
100.031
100.026
100.022
100.019
100.017
100.017
100.017
100.019
100.022
100.027
100.033
100.04
100.049
100.06
100.071
100.084
100.098
100.114
100.13
100.148
100.167
100.186
100.206
100.227
100.249
100.271
100.293
100.316
100.338
100.361
100.383
100.406
100.427
100.449
100.47
100.49
100.51
100.529
100.547
100.564
100.58
100.596
100.61
100.623
100.636
100.647
100.657
100.667
100.675
100.683
100.69
100.696
100.701
100.706
100.71
100.713
100.716
100.718
100.72
100.721
100.723
100.723
100.724
100.724
100.724
100.723
100.723
100.722
100.72
100.719
100.717
100.715
100.712
100.71
100.707
100.703
100.699
100.695
100.691
100.686
100.681
100.675
100.669
100.663
100.656
100.649
100.642
100.635
100.627
100.619
100.611
100.603
100.594
100.586
100.577
100.569
100.56
100.552
100.543
100.535
100.527
100.519
100.511
100.503
100.496
100.49
100.484
100.478
100.473
100.469
100.465
100.463
100.461
100.46
100.46
100.462
100.464
100.468
100.473
100.479
100.487
100.496
100.506
100.518
100.53
100.544
100.559
100.576
100.593
100.611
100.629
100.648
100.668
100.688
100.708
100.729
100.749
100.769
100.788
100.808
100.826
100.844
100.86
100.876
100.891
100.904
100.916
100.927
100.936
100.944
100.95
100.955
100.957
100.959
100.027
100.028
100.029
100.031
100.033
100.036
100.039
100.042
100.046
100.051
100.055
100.06
100.066
100.071
100.077
100.084
100.09
100.098
100.105
100.113
100.121
100.13
100.139
100.149
100.159
100.17
100.182
100.194
100.207
100.221
100.236
100.252
100.268
100.285
100.302
100.319
100.337
100.354
100.371
100.386
100.401
100.413
100.424
100.433
100.439
100.443
100.444
100.442
100.437
100.429
100.419
100.406
100.39
100.373
100.353
100.332
100.31
100.287
100.264
100.24
100.217
100.194
100.172
100.152
100.133
100.115
100.099
100.085
100.074
100.064
100.056
100.05
100.047
100.045
100.045
100.046
100.048
100.052
100.056
100.06
100.065
100.07
100.075
100.08
100.084
100.087
100.089
100.091
100.091
100.091
100.09
100.087
100.084
100.08
100.076
100.071
100.065
100.059
100.053
100.047
100.041
100.036
100.031
100.027
100.023
100.02
100.019
100.018
100.019
100.021
100.024
100.028
100.034
100.042
100.051
100.061
100.072
100.085
100.099
100.115
100.131
100.149
100.167
100.187
100.207
100.228
100.249
100.271
100.293
100.316
100.338
100.361
100.383
100.405
100.427
100.448
100.469
100.489
100.509
100.527
100.545
100.562
100.578
100.594
100.608
100.621
100.634
100.645
100.655
100.665
100.673
100.681
100.688
100.694
100.699
100.703
100.707
100.711
100.713
100.716
100.718
100.719
100.72
100.721
100.721
100.721
100.721
100.721
100.72
100.719
100.718
100.716
100.715
100.713
100.71
100.708
100.705
100.701
100.698
100.694
100.689
100.684
100.679
100.674
100.668
100.662
100.656
100.649
100.642
100.634
100.627
100.619
100.611
100.603
100.595
100.586
100.578
100.57
100.561
100.553
100.544
100.536
100.528
100.52
100.513
100.505
100.498
100.492
100.486
100.48
100.475
100.471
100.468
100.465
100.463
100.462
100.463
100.464
100.467
100.47
100.475
100.482
100.489
100.498
100.508
100.52
100.532
100.546
100.561
100.577
100.594
100.612
100.63
100.649
100.669
100.689
100.709
100.729
100.749
100.769
100.788
100.807
100.825
100.843
100.859
100.875
100.889
100.903
100.915
100.925
100.935
100.942
100.948
100.953
100.956
100.957
100.029
100.03
100.031
100.032
100.034
100.037
100.04
100.043
100.047
100.051
100.056
100.061
100.066
100.072
100.078
100.084
100.091
100.099
100.106
100.114
100.123
100.132
100.142
100.152
100.163
100.174
100.186
100.199
100.213
100.227
100.242
100.257
100.273
100.29
100.306
100.322
100.338
100.354
100.368
100.381
100.393
100.403
100.412
100.418
100.422
100.424
100.424
100.421
100.416
100.408
100.398
100.386
100.372
100.357
100.339
100.321
100.301
100.281
100.26
100.239
100.218
100.198
100.179
100.16
100.143
100.127
100.113
100.101
100.09
100.081
100.074
100.069
100.065
100.062
100.061
100.061
100.062
100.064
100.066
100.069
100.072
100.075
100.077
100.08
100.082
100.084
100.085
100.086
100.086
100.085
100.083
100.081
100.078
100.075
100.071
100.066
100.061
100.056
100.051
100.046
100.04
100.036
100.031
100.027
100.024
100.022
100.02
100.02
100.02
100.022
100.026
100.03
100.036
100.043
100.052
100.062
100.074
100.087
100.101
100.116
100.132
100.15
100.168
100.188
100.208
100.229
100.25
100.272
100.294
100.316
100.338
100.36
100.383
100.404
100.426
100.447
100.468
100.488
100.507
100.526
100.543
100.56
100.576
100.591
100.605
100.619
100.631
100.642
100.652
100.662
100.67
100.678
100.685
100.691
100.696
100.7
100.704
100.708
100.71
100.713
100.715
100.716
100.717
100.718
100.718
100.718
100.718
100.718
100.717
100.716
100.715
100.714
100.712
100.71
100.708
100.705
100.702
100.699
100.695
100.691
100.687
100.683
100.678
100.672
100.667
100.661
100.655
100.648
100.641
100.634
100.627
100.619
100.611
100.603
100.595
100.587
100.579
100.57
100.562
100.554
100.546
100.538
100.53
100.522
100.514
100.507
100.501
100.494
100.488
100.483
100.478
100.474
100.471
100.468
100.466
100.466
100.466
100.468
100.47
100.474
100.479
100.485
100.493
100.501
100.512
100.523
100.535
100.549
100.564
100.58
100.596
100.614
100.632
100.651
100.67
100.69
100.709
100.729
100.749
100.769
100.788
100.807
100.825
100.842
100.858
100.874
100.888
100.901
100.913
100.924
100.933
100.94
100.946
100.951
100.954
100.955
100.031
100.032
100.033
100.034
100.036
100.038
100.041
100.044
100.048
100.052
100.057
100.061
100.067
100.073
100.079
100.085
100.092
100.1
100.108
100.116
100.125
100.135
100.145
100.156
100.167
100.179
100.192
100.205
100.219
100.234
100.249
100.264
100.279
100.295
100.31
100.325
100.339
100.352
100.364
100.375
100.384
100.391
100.397
100.401
100.402
100.402
100.401
100.397
100.391
100.384
100.375
100.364
100.352
100.338
100.323
100.307
100.29
100.273
100.255
100.237
100.22
100.203
100.186
100.17
100.156
100.142
100.13
100.119
100.11
100.102
100.095
100.09
100.086
100.082
100.08
100.079
100.078
100.078
100.078
100.079
100.079
100.08
100.081
100.081
100.082
100.082
100.081
100.081
100.08
100.078
100.076
100.074
100.071
100.068
100.065
100.061
100.057
100.052
100.048
100.043
100.039
100.035
100.031
100.027
100.025
100.023
100.022
100.021
100.022
100.024
100.028
100.032
100.038
100.046
100.054
100.064
100.076
100.088
100.102
100.118
100.134
100.151
100.17
100.189
100.209
100.229
100.25
100.272
100.294
100.316
100.338
100.36
100.382
100.404
100.425
100.446
100.466
100.486
100.505
100.523
100.541
100.558
100.574
100.589
100.603
100.616
100.628
100.639
100.649
100.658
100.667
100.674
100.681
100.687
100.692
100.697
100.701
100.704
100.707
100.709
100.711
100.712
100.713
100.714
100.715
100.715
100.715
100.714
100.714
100.713
100.712
100.71
100.709
100.707
100.705
100.702
100.699
100.696
100.693
100.689
100.685
100.681
100.676
100.671
100.665
100.659
100.653
100.647
100.64
100.633
100.626
100.619
100.611
100.603
100.596
100.588
100.579
100.571
100.563
100.555
100.547
100.539
100.532
100.524
100.517
100.51
100.503
100.497
100.491
100.486
100.481
100.477
100.474
100.472
100.47
100.47
100.47
100.472
100.475
100.478
100.483
100.49
100.497
100.506
100.516
100.527
100.539
100.553
100.567
100.583
100.599
100.617
100.634
100.653
100.672
100.691
100.711
100.73
100.75
100.769
100.788
100.807
100.825
100.842
100.858
100.873
100.887
100.9
100.912
100.922
100.931
100.939
100.945
100.949
100.952
100.953
100.033
100.034
100.035
100.036
100.038
100.04
100.043
100.046
100.049
100.053
100.058
100.062
100.068
100.074
100.08
100.087
100.094
100.102
100.11
100.119
100.128
100.138
100.149
100.16
100.172
100.185
100.198
100.212
100.226
100.241
100.256
100.271
100.286
100.3
100.314
100.327
100.339
100.35
100.359
100.366
100.372
100.377
100.38
100.381
100.38
100.378
100.375
100.37
100.364
100.357
100.348
100.339
100.328
100.317
100.305
100.291
100.278
100.264
100.25
100.235
100.221
100.207
100.194
100.181
100.169
100.158
100.148
100.139
100.131
100.124
100.118
100.113
100.109
100.105
100.101
100.099
100.096
100.094
100.092
100.09
100.088
100.087
100.085
100.083
100.082
100.08
100.078
100.076
100.074
100.072
100.07
100.067
100.065
100.062
100.058
100.055
100.051
100.048
100.044
100.04
100.036
100.033
100.03
100.027
100.025
100.024
100.023
100.023
100.024
100.027
100.03
100.035
100.041
100.048
100.057
100.067
100.078
100.091
100.105
100.12
100.136
100.153
100.171
100.19
100.21
100.23
100.251
100.272
100.294
100.316
100.338
100.359
100.381
100.403
100.424
100.444
100.464
100.484
100.503
100.521
100.538
100.555
100.571
100.585
100.599
100.612
100.624
100.635
100.645
100.654
100.662
100.67
100.677
100.683
100.688
100.692
100.696
100.699
100.702
100.705
100.707
100.708
100.709
100.71
100.71
100.711
100.711
100.71
100.71
100.709
100.708
100.707
100.705
100.703
100.701
100.699
100.696
100.693
100.69
100.686
100.682
100.678
100.673
100.669
100.663
100.658
100.652
100.646
100.639
100.632
100.625
100.618
100.611
100.603
100.596
100.588
100.58
100.572
100.564
100.557
100.549
100.541
100.534
100.526
100.519
100.513
100.506
100.5
100.495
100.49
100.485
100.482
100.479
100.477
100.475
100.475
100.475
100.477
100.48
100.484
100.489
100.495
100.502
100.511
100.521
100.532
100.544
100.557
100.572
100.587
100.603
100.62
100.638
100.656
100.675
100.694
100.713
100.732
100.751
100.77
100.789
100.807
100.825
100.842
100.858
100.873
100.886
100.899
100.911
100.921
100.93
100.937
100.943
100.947
100.95
100.951
100.036
100.036
100.037
100.038
100.04
100.042
100.044
100.047
100.051
100.054
100.059
100.064
100.069
100.075
100.081
100.088
100.096
100.104
100.113
100.122
100.132
100.143
100.154
100.166
100.179
100.192
100.206
100.22
100.234
100.249
100.264
100.278
100.292
100.305
100.317
100.328
100.338
100.345
100.352
100.356
100.359
100.361
100.361
100.359
100.356
100.352
100.347
100.342
100.335
100.328
100.32
100.312
100.303
100.294
100.285
100.275
100.264
100.254
100.243
100.233
100.222
100.212
100.202
100.193
100.184
100.176
100.168
100.161
100.154
100.148
100.143
100.138
100.133
100.128
100.124
100.12
100.115
100.111
100.107
100.103
100.099
100.095
100.091
100.087
100.083
100.08
100.076
100.073
100.07
100.067
100.064
100.061
100.058
100.055
100.052
100.049
100.046
100.043
100.039
100.036
100.033
100.031
100.028
100.026
100.025
100.024
100.024
100.024
100.026
100.029
100.032
100.037
100.044
100.051
100.06
100.07
100.081
100.093
100.107
100.122
100.138
100.155
100.173
100.191
100.211
100.231
100.251
100.273
100.294
100.315
100.337
100.359
100.38
100.401
100.422
100.443
100.462
100.482
100.5
100.518
100.535
100.552
100.567
100.582
100.595
100.608
100.62
100.631
100.64
100.65
100.658
100.665
100.672
100.678
100.683
100.687
100.691
100.694
100.697
100.7
100.702
100.703
100.704
100.705
100.706
100.706
100.706
100.706
100.705
100.705
100.704
100.703
100.701
100.699
100.698
100.695
100.693
100.69
100.687
100.683
100.679
100.675
100.671
100.666
100.661
100.656
100.65
100.644
100.638
100.631
100.625
100.618
100.611
100.603
100.596
100.588
100.581
100.573
100.566
100.558
100.551
100.543
100.536
100.529
100.522
100.516
100.51
100.504
100.499
100.494
100.49
100.487
100.484
100.482
100.481
100.481
100.481
100.483
100.486
100.49
100.495
100.501
100.509
100.517
100.527
100.538
100.55
100.563
100.577
100.592
100.608
100.624
100.642
100.66
100.678
100.697
100.715
100.734
100.753
100.772
100.79
100.808
100.825
100.841
100.857
100.872
100.886
100.898
100.909
100.919
100.928
100.935
100.941
100.945
100.948
100.949
100.038
100.039
100.039
100.041
100.042
100.044
100.046
100.049
100.052
100.056
100.06
100.065
100.071
100.077
100.083
100.091
100.098
100.107
100.116
100.126
100.136
100.148
100.16
100.172
100.186
100.199
100.214
100.228
100.243
100.257
100.271
100.285
100.298
100.309
100.319
100.328
100.335
100.34
100.343
100.345
100.344
100.343
100.34
100.336
100.331
100.325
100.319
100.312
100.306
100.299
100.292
100.285
100.278
100.271
100.264
100.257
100.25
100.243
100.236
100.23
100.223
100.217
100.211
100.205
100.199
100.194
100.188
100.183
100.178
100.173
100.168
100.163
100.158
100.153
100.147
100.142
100.136
100.129
100.123
100.117
100.11
100.104
100.098
100.092
100.086
100.081
100.076
100.071
100.067
100.063
100.059
100.055
100.052
100.049
100.046
100.043
100.04
100.037
100.034
100.032
100.03
100.028
100.026
100.025
100.024
100.024
100.024
100.025
100.028
100.031
100.035
100.04
100.046
100.054
100.063
100.073
100.084
100.096
100.11
100.124
100.14
100.157
100.174
100.193
100.212
100.232
100.252
100.273
100.294
100.315
100.336
100.358
100.379
100.4
100.42
100.44
100.46
100.479
100.498
100.515
100.532
100.548
100.563
100.578
100.591
100.603
100.615
100.626
100.635
100.644
100.652
100.66
100.666
100.672
100.677
100.682
100.685
100.689
100.692
100.694
100.696
100.698
100.699
100.7
100.701
100.701
100.701
100.701
100.701
100.7
100.699
100.698
100.697
100.695
100.694
100.691
100.689
100.686
100.683
100.68
100.676
100.672
100.668
100.664
100.659
100.654
100.648
100.642
100.636
100.63
100.624
100.617
100.61
100.603
100.596
100.589
100.582
100.574
100.567
100.56
100.553
100.545
100.539
100.532
100.525
100.519
100.514
100.508
100.503
100.499
100.495
100.492
100.49
100.488
100.487
100.487
100.488
100.49
100.493
100.497
100.502
100.508
100.516
100.524
100.534
100.545
100.556
100.569
100.583
100.597
100.613
100.629
100.646
100.664
100.681
100.7
100.718
100.736
100.755
100.773
100.791
100.808
100.825
100.841
100.857
100.871
100.884
100.897
100.908
100.918
100.926
100.933
100.939
100.943
100.945
100.947
100.041
100.041
100.042
100.043
100.045
100.046
100.049
100.051
100.055
100.058
100.063
100.067
100.073
100.079
100.086
100.093
100.101
100.11
100.12
100.13
100.142
100.154
100.166
100.179
100.193
100.208
100.222
100.237
100.251
100.265
100.279
100.291
100.302
100.312
100.32
100.326
100.33
100.332
100.332
100.331
100.328
100.323
100.318
100.312
100.305
100.297
100.29
100.283
100.275
100.269
100.262
100.257
100.251
100.247
100.242
100.238
100.235
100.232
100.229
100.226
100.224
100.221
100.219
100.216
100.214
100.211
100.209
100.206
100.202
100.198
100.194
100.189
100.184
100.178
100.171
100.164
100.156
100.148
100.14
100.132
100.123
100.115
100.107
100.099
100.091
100.084
100.077
100.071
100.065
100.06
100.055
100.051
100.047
100.043
100.04
100.037
100.034
100.031
100.029
100.027
100.025
100.024
100.023
100.022
100.022
100.023
100.024
100.026
100.029
100.032
100.037
100.042
100.049
100.057
100.066
100.076
100.087
100.099
100.113
100.127
100.143
100.159
100.176
100.194
100.213
100.233
100.253
100.273
100.294
100.315
100.336
100.357
100.377
100.398
100.418
100.438
100.457
100.476
100.494
100.512
100.528
100.544
100.559
100.573
100.586
100.598
100.61
100.62
100.63
100.639
100.647
100.654
100.66
100.666
100.671
100.676
100.679
100.683
100.686
100.688
100.69
100.692
100.693
100.694
100.695
100.696
100.696
100.696
100.696
100.695
100.695
100.694
100.692
100.691
100.689
100.687
100.685
100.683
100.68
100.677
100.673
100.669
100.665
100.661
100.656
100.651
100.646
100.641
100.635
100.629
100.623
100.616
100.61
100.603
100.596
100.589
100.582
100.575
100.568
100.562
100.555
100.548
100.541
100.535
100.529
100.523
100.518
100.513
100.508
100.504
100.501
100.498
100.496
100.494
100.494
100.494
100.495
100.497
100.501
100.505
100.51
100.516
100.523
100.532
100.541
100.552
100.563
100.576
100.589
100.603
100.618
100.634
100.651
100.668
100.685
100.703
100.721
100.738
100.756
100.774
100.791
100.808
100.825
100.841
100.856
100.87
100.883
100.895
100.905
100.915
100.923
100.93
100.936
100.94
100.942
100.943
100.044
100.044
100.045
100.046
100.047
100.049
100.051
100.054
100.057
100.061
100.065
100.07
100.076
100.082
100.089
100.097
100.105
100.115
100.125
100.136
100.148
100.16
100.173
100.187
100.202
100.216
100.231
100.246
100.26
100.273
100.285
100.296
100.306
100.313
100.319
100.322
100.323
100.323
100.32
100.316
100.31
100.303
100.295
100.287
100.278
100.269
100.261
100.253
100.246
100.239
100.234
100.229
100.226
100.223
100.221
100.22
100.22
100.22
100.221
100.222
100.224
100.225
100.226
100.227
100.228
100.228
100.228
100.227
100.225
100.222
100.219
100.214
100.208
100.202
100.194
100.186
100.177
100.168
100.158
100.148
100.137
100.127
100.117
100.108
100.098
100.089
100.081
100.073
100.066
100.059
100.053
100.048
100.043
100.039
100.035
100.031
100.028
100.026
100.024
100.022
100.021
100.02
100.019
100.019
100.02
100.021
100.023
100.026
100.029
100.033
100.038
100.044
100.051
100.059
100.069
100.079
100.09
100.102
100.116
100.13
100.145
100.161
100.178
100.196
100.215
100.234
100.253
100.273
100.294
100.314
100.335
100.355
100.376
100.396
100.416
100.435
100.454
100.473
100.49
100.507
100.524
100.539
100.554
100.568
100.581
100.593
100.604
100.614
100.624
100.632
100.64
100.647
100.654
100.66
100.665
100.669
100.673
100.676
100.679
100.682
100.684
100.686
100.687
100.688
100.689
100.69
100.69
100.69
100.69
100.69
100.689
100.689
100.688
100.686
100.685
100.683
100.681
100.679
100.676
100.673
100.67
100.666
100.662
100.658
100.654
100.649
100.644
100.639
100.634
100.628
100.622
100.616
100.61
100.603
100.597
100.59
100.584
100.577
100.57
100.564
100.557
100.551
100.545
100.539
100.533
100.528
100.522
100.518
100.514
100.51
100.507
100.504
100.503
100.501
100.501
100.502
100.503
100.505
100.508
100.513
100.518
100.524
100.531
100.54
100.549
100.559
100.57
100.582
100.596
100.609
100.624
100.639
100.655
100.672
100.689
100.706
100.723
100.74
100.758
100.775
100.792
100.808
100.824
100.84
100.854
100.868
100.88
100.892
100.903
100.912
100.92
100.927
100.932
100.936
100.939
100.94
100.047
100.048
100.048
100.049
100.051
100.052
100.054
100.057
100.06
100.064
100.068
100.073
100.079
100.085
100.093
100.101
100.11
100.119
100.13
100.142
100.154
100.167
100.181
100.196
100.211
100.225
100.24
100.254
100.268
100.28
100.291
100.3
100.307
100.313
100.316
100.316
100.315
100.311
100.306
100.299
100.291
100.282
100.272
100.262
100.252
100.242
100.233
100.224
100.217
100.211
100.206
100.203
100.201
100.2
100.201
100.202
100.205
100.209
100.213
100.218
100.223
100.228
100.233
100.237
100.241
100.244
100.246
100.247
100.247
100.245
100.242
100.238
100.232
100.225
100.217
100.208
100.198
100.187
100.176
100.164
100.153
100.141
100.129
100.118
100.107
100.097
100.087
100.077
100.069
100.061
100.053
100.047
100.041
100.035
100.031
100.027
100.023
100.021
100.018
100.017
100.016
100.015
100.015
100.016
100.017
100.019
100.021
100.025
100.029
100.033
100.039
100.046
100.053
100.062
100.071
100.081
100.093
100.105
100.118
100.133
100.148
100.164
100.181
100.198
100.216
100.235
100.254
100.274
100.294
100.314
100.334
100.354
100.374
100.394
100.413
100.432
100.451
100.469
100.486
100.503
100.519
100.534
100.549
100.562
100.575
100.587
100.598
100.608
100.617
100.626
100.634
100.641
100.647
100.653
100.658
100.662
100.666
100.67
100.673
100.675
100.678
100.679
100.681
100.682
100.683
100.684
100.684
100.685
100.685
100.684
100.684
100.683
100.682
100.681
100.68
100.678
100.676
100.674
100.672
100.669
100.666
100.663
100.66
100.656
100.652
100.647
100.643
100.638
100.633
100.627
100.622
100.616
100.61
100.604
100.598
100.591
100.585
100.579
100.572
100.566
100.56
100.554
100.548
100.543
100.537
100.532
100.527
100.523
100.519
100.516
100.513
100.511
100.51
100.509
100.509
100.509
100.511
100.513
100.517
100.521
100.526
100.532
100.54
100.548
100.557
100.567
100.578
100.59
100.602
100.616
100.63
100.645
100.66
100.676
100.692
100.709
100.725
100.742
100.759
100.776
100.792
100.808
100.823
100.838
100.852
100.865
100.878
100.889
100.899
100.908
100.916
100.923
100.928
100.932
100.934
100.935
100.05
100.051
100.052
100.053
100.054
100.056
100.058
100.06
100.064
100.067
100.072
100.077
100.083
100.089
100.097
100.105
100.115
100.125
100.137
100.149
100.162
100.176
100.19
100.205
100.22
100.234
100.249
100.262
100.275
100.286
100.295
100.302
100.307
100.31
100.31
100.308
100.304
100.298
100.291
100.281
100.271
100.26
100.248
100.237
100.226
100.215
100.205
100.197
100.19
100.184
100.18
100.178
100.177
100.179
100.181
100.186
100.191
100.198
100.206
100.214
100.222
100.23
100.239
100.246
100.253
100.258
100.262
100.265
100.266
100.265
100.263
100.259
100.254
100.247
100.238
100.228
100.218
100.206
100.194
100.182
100.169
100.156
100.143
100.13
100.118
100.106
100.094
100.084
100.073
100.064
100.055
100.047
100.04
100.034
100.028
100.024
100.02
100.017
100.014
100.012
100.011
100.011
100.011
100.012
100.014
100.016
100.019
100.023
100.028
100.033
100.039
100.046
100.054
100.063
100.073
100.084
100.095
100.108
100.121
100.135
100.15
100.166
100.183
100.2
100.218
100.236
100.255
100.274
100.294
100.313
100.333
100.352
100.372
100.391
100.41
100.429
100.447
100.465
100.482
100.498
100.514
100.529
100.543
100.556
100.569
100.58
100.591
100.601
100.611
100.619
100.627
100.634
100.64
100.646
100.651
100.656
100.66
100.663
100.666
100.669
100.671
100.673
100.674
100.676
100.677
100.678
100.678
100.678
100.679
100.678
100.678
100.678
100.677
100.676
100.675
100.674
100.672
100.67
100.668
100.665
100.663
100.66
100.657
100.653
100.649
100.645
100.641
100.636
100.631
100.626
100.621
100.616
100.61
100.604
100.599
100.593
100.587
100.581
100.575
100.569
100.563
100.557
100.552
100.547
100.542
100.537
100.533
100.529
100.525
100.522
100.52
100.518
100.517
100.516
100.517
100.518
100.519
100.522
100.525
100.53
100.535
100.541
100.548
100.556
100.565
100.575
100.585
100.597
100.609
100.622
100.636
100.65
100.665
100.68
100.696
100.712
100.728
100.744
100.76
100.776
100.792
100.807
100.822
100.836
100.85
100.863
100.874
100.885
100.895
100.904
100.912
100.918
100.923
100.927
100.929
100.93
100.054
100.054
100.055
100.056
100.057
100.059
100.061
100.064
100.067
100.071
100.076
100.081
100.087
100.094
100.102
100.111
100.121
100.132
100.144
100.157
100.17
100.184
100.199
100.214
100.229
100.243
100.257
100.269
100.28
100.29
100.297
100.302
100.305
100.305
100.303
100.298
100.292
100.284
100.274
100.262
100.25
100.238
100.225
100.213
100.201
100.19
100.18
100.171
100.164
100.159
100.156
100.155
100.156
100.159
100.164
100.17
100.178
100.188
100.198
100.209
100.221
100.232
100.243
100.253
100.262
100.27
100.276
100.28
100.283
100.283
100.282
100.278
100.273
100.266
100.258
100.248
100.237
100.225
100.212
100.199
100.185
100.172
100.158
100.144
100.13