# vtk DataFile Version 2.0
HPC Tutorials: Michael Bader, Kaveh Rahnema, Oliver Meister
ASCII
DATASET RECTILINEAR_GRID
DIMENSIONS 257 257 1
X_COORDINATES 257 float
0
0.005
0.01
0.015
0.02
0.025
0.03
0.035
0.04
0.045
0.05
0.055
0.06
0.065
0.07
0.075
0.08
0.085
0.09
0.095
0.1
0.105
0.11
0.115
0.12
0.125
0.13
0.135
0.14
0.145
0.15
0.155
0.16
0.165
0.17
0.175
0.18
0.185
0.19
0.195
0.2
0.205
0.21
0.215
0.22
0.225
0.23
0.235
0.24
0.245
0.25
0.255
0.26
0.265
0.27
0.275
0.28
0.285
0.29
0.295
0.3
0.305
0.31
0.315
0.32
0.325
0.33
0.335
0.34
0.345
0.35
0.355
0.36
0.365
0.37
0.375
0.38
0.385
0.39
0.395
0.4
0.405
0.41
0.415
0.42
0.425
0.43
0.435
0.44
0.445
0.45
0.455
0.46
0.465
0.47
0.475
0.48
0.485
0.49
0.495
0.5
0.505
0.51
0.515
0.52
0.525
0.53
0.535
0.54
0.545
0.55
0.555
0.56
0.565
0.57
0.575
0.58
0.585
0.59
0.595
0.6
0.605
0.61
0.615
0.62
0.625
0.63
0.635
0.64
0.645
0.65
0.655
0.66
0.665
0.67
0.675
0.68
0.685
0.69
0.695
0.7
0.705
0.71
0.715
0.72
0.725
0.73
0.735
0.74
0.745
0.75
0.755
0.76
0.765
0.77
0.775
0.78
0.785
0.79
0.795
0.8
0.805
0.81
0.815
0.82
0.825
0.83
0.835
0.84
0.845
0.85
0.855
0.86
0.865
0.87
0.875
0.88
0.885
0.89
0.895
0.9
0.905
0.91
0.915
0.92
0.925
0.93
0.935
0.94
0.945
0.95
0.955
0.96
0.965
0.97
0.975
0.98
0.985
0.99
0.995
1
1.005
1.01
1.015
1.02
1.025
1.03
1.035
1.04
1.045
1.05
1.055
1.06
1.065
1.07
1.075
1.08
1.085
1.09
1.095
1.1
1.105
1.11
1.115
1.12
1.125
1.13
1.135
1.14
1.145
1.15
1.155
1.16
1.165
1.17
1.175
1.18
1.185
1.19
1.195
1.2
1.205
1.21
1.215
1.22
1.225
1.23
1.235
1.24
1.245
1.25
1.255
1.26
1.265
1.27
1.275
1.28
Y_COORDINATES 257 float
0
0.005
0.01
0.015
0.02
0.025
0.03
0.035
0.04
0.045
0.05
0.055
0.06
0.065
0.07
0.075
0.08
0.085
0.09
0.095
0.1
0.105
0.11
0.115
0.12
0.125
0.13
0.135
0.14
0.145
0.15
0.155
0.16
0.165
0.17
0.175
0.18
0.185
0.19
0.195
0.2
0.205
0.21
0.215
0.22
0.225
0.23
0.235
0.24
0.245
0.25
0.255
0.26
0.265
0.27
0.275
0.28
0.285
0.29
0.295
0.3
0.305
0.31
0.315
0.32
0.325
0.33
0.335
0.34
0.345
0.35
0.355
0.36
0.365
0.37
0.375
0.38
0.385
0.39
0.395
0.4
0.405
0.41
0.415
0.42
0.425
0.43
0.435
0.44
0.445
0.45
0.455
0.46
0.465
0.47
0.475
0.48
0.485
0.49
0.495
0.5
0.505
0.51
0.515
0.52
0.525
0.53
0.535
0.54
0.545
0.55
0.555
0.56
0.565
0.57
0.575
0.58
0.585
0.59
0.595
0.6
0.605
0.61
0.615
0.62
0.625
0.63
0.635
0.64
0.645
0.65
0.655
0.66
0.665
0.67
0.675
0.68
0.685
0.69
0.695
0.7
0.705
0.71
0.715
0.72
0.725
0.73
0.735
0.74
0.745
0.75
0.755
0.76
0.765
0.77
0.775
0.78
0.785
0.79
0.795
0.8
0.805
0.81
0.815
0.82
0.825
0.83
0.835
0.84
0.845
0.85
0.855
0.86
0.865
0.87
0.875
0.88
0.885
0.89
0.895
0.9
0.905
0.91
0.915
0.92
0.925
0.93
0.935
0.94
0.945
0.95
0.955
0.96
0.965
0.97
0.975
0.98
0.985
0.99
0.995
1
1.005
1.01
1.015
1.02
1.025
1.03
1.035
1.04
1.045
1.05
1.055
1.06
1.065
1.07
1.075
1.08
1.085
1.09
1.095
1.1
1.105
1.11
1.115
1.12
1.125
1.13
1.135
1.14
1.145
1.15
1.155
1.16
1.165
1.17
1.175
1.18
1.185
1.19
1.195
1.2
1.205
1.21
1.215
1.22
1.225
1.23
1.235
1.24
1.245
1.25
1.255
1.26
1.265
1.27
1.275
1.28
Z_COORDINATES 1 float
0
CELL_DATA 65536
SCALARS H float 1
LOOKUP_TABLE default
99.5919
99.592
99.5921
99.5922
99.5921
99.5916
99.5907
99.5893
99.5875
99.5854
99.5831
99.5809
99.5789
99.5772
99.576
99.5754
99.5754
99.5761
99.5774
99.5795
99.5822
99.5857
99.59
99.5951
99.6009
99.6076
99.6151
99.6233
99.6322
99.6417
99.6516
99.6619
99.6722
99.6825
99.6925
99.702
99.7108
99.7186
99.7254
99.7309
99.735
99.7377
99.7389
99.7387
99.7372
99.7345
99.7309
99.7266
99.7219
99.7172
99.7129
99.7092
99.7065
99.705
99.7051
99.7068
99.7103
99.7157
99.7228
99.7316
99.742
99.7536
99.7664
99.78
99.7941
99.8084
99.8227
99.8366
99.8499
99.8623
99.8736
99.8837
99.8924
99.8996
99.9054
99.9095
99.9122
99.9135
99.9134
99.9121
99.9097
99.9064
99.9024
99.8979
99.893
99.8879
99.8827
99.8776
99.8728
99.8683
99.8643
99.8607
99.8577
99.8552
99.8534
99.8522
99.8516
99.8516
99.8522
99.8533
99.855
99.8573
99.8601
99.8634
99.8672
99.8715
99.8764
99.8818
99.8879
99.8946
99.9021
99.9105
99.9197
99.93
99.9413
99.9539
99.9677
99.983
99.9997
100.018
100.038
100.059
100.082
100.106
100.132
100.159
100.188
100.217
100.247
100.278
100.309
100.34
100.371
100.401
100.43
100.458
100.484
100.509
100.531
100.551
100.568
100.582
100.594
100.602
100.608
100.61
100.61
100.608
100.603
100.596
100.587
100.577
100.565
100.553
100.539
100.526
100.512
100.499
100.486
100.473
100.461
100.45
100.439
100.429
100.42
100.412
100.404
100.396
100.389
100.382
100.376
100.369
100.363
100.356
100.35
100.343
100.337
100.33
100.323
100.315
100.307
100.3
100.292
100.283
100.275
100.267
100.259
100.251
100.243
100.235
100.228
100.221
100.215
100.209
100.204
100.2
100.197
100.195
100.194
100.194
100.195
100.198
100.202
100.207
100.214
100.221
100.231
100.242
100.254
100.267
100.282
100.298
100.315
100.334
100.354
100.374
100.396
100.419
100.442
100.466
100.491
100.516
100.542
100.568
100.594
100.62
100.646
100.672
100.698
100.724
100.749
100.774
100.798
100.822
100.845
100.867
100.889
100.909
100.929
100.947
100.965
100.981
100.997
101.011
101.025
101.037
101.048
101.058
101.067
101.075
101.081
101.087
101.091
101.094
101.096
101.097
99.5917
99.5917
99.5919
99.5921
99.592
99.5916
99.5908
99.5896
99.588
99.5861
99.584
99.582
99.5802
99.5787
99.5777
99.5773
99.5775
99.5784
99.5799
99.5821
99.585
99.5887
99.5931
99.5983
99.6042
99.6109
99.6184
99.6266
99.6355
99.6449
99.6547
99.6648
99.675
99.6852
99.695
99.7044
99.7131
99.7208
99.7275
99.733
99.7372
99.7399
99.7412
99.7411
99.7398
99.7372
99.7337
99.7296
99.7251
99.7205
99.7162
99.7125
99.7098
99.7083
99.7083
99.7098
99.7132
99.7182
99.7251
99.7336
99.7436
99.7548
99.7672
99.7803
99.794
99.8078
99.8216
99.835
99.8477
99.8596
99.8704
99.88
99.8881
99.8949
99.9
99.9037
99.9059
99.9066
99.906
99.9042
99.9014
99.8976
99.8932
99.8882
99.8828
99.8773
99.8717
99.8662
99.861
99.8561
99.8516
99.8476
99.8443
99.8414
99.8393
99.8377
99.8367
99.8364
99.8367
99.8375
99.8389
99.8408
99.8433
99.8463
99.8498
99.8538
99.8585
99.8636
99.8695
99.876
99.8833
99.8914
99.9005
99.9106
99.9218
99.9341
99.9478
99.9629
99.9794
99.9974
100.017
100.038
100.061
100.085
100.11
100.137
100.165
100.194
100.224
100.254
100.285
100.315
100.345
100.375
100.403
100.431
100.456
100.48
100.501
100.521
100.537
100.551
100.562
100.57
100.575
100.578
100.577
100.575
100.57
100.563
100.554
100.543
100.532
100.52
100.507
100.494
100.481
100.468
100.455
100.443
100.432
100.421
100.411
100.402
100.394
100.386
100.379
100.372
100.366
100.361
100.355
100.35
100.345
100.341
100.336
100.331
100.326
100.32
100.315
100.309
100.304
100.298
100.292
100.285
100.279
100.273
100.266
100.26
100.254
100.248
100.242
100.237
100.232
100.228
100.224
100.221
100.219
100.218
100.218
100.218
100.22
100.223
100.227
100.232
100.238
100.246
100.255
100.265
100.276
100.289
100.303
100.318
100.334
100.352
100.37
100.39
100.41
100.431
100.453
100.476
100.499
100.523
100.547
100.571
100.596
100.621
100.646
100.671
100.695
100.72
100.744
100.768
100.791
100.814
100.836
100.858
100.878
100.898
100.918
100.936
100.953
100.97
100.985
101
101.013
101.025
101.037
101.047
101.056
101.064
101.071
101.076
101.081
101.084
101.086
101.087
99.5916
99.5916
99.5919
99.5921
99.5922
99.592
99.5914
99.5903
99.589
99.5873
99.5856
99.5839
99.5824
99.5812
99.5805
99.5804
99.5809
99.5821
99.5838
99.5863
99.5895
99.5934
99.5979
99.6033
99.6093
99.6161
99.6236
99.6317
99.6405
99.6497
99.6594
99.6693
99.6793
99.6892
99.6988
99.708
99.7165
99.7242
99.7308
99.7363
99.7405
99.7433
99.7448
99.7449
99.7437
99.7413
99.7381
99.7341
99.7297
99.7253
99.721
99.7174
99.7146
99.713
99.7128
99.7141
99.717
99.7217
99.728
99.736
99.7453
99.756
99.7676
99.78
99.7929
99.8059
99.8189
99.8315
99.8434
99.8544
99.8644
99.8731
99.8805
99.8864
99.8908
99.8937
99.8951
99.8951
99.8938
99.8912
99.8877
99.8833
99.8782
99.8726
99.8666
99.8605
99.8543
99.8483
99.8426
99.8372
99.8323
99.8278
99.824
99.8207
99.8181
99.8161
99.8148
99.814
99.8139
99.8144
99.8154
99.817
99.8191
99.8217
99.8249
99.8287
99.833
99.838
99.8436
99.8499
99.857
99.8649
99.8738
99.8837
99.8948
99.907
99.9206
99.9355
99.9519
99.9697
99.9891
100.01
100.032
100.056
100.081
100.108
100.135
100.163
100.192
100.222
100.252
100.281
100.31
100.339
100.367
100.393
100.417
100.44
100.461
100.479
100.494
100.507
100.517
100.525
100.529
100.531
100.531
100.527
100.522
100.515
100.506
100.496
100.484
100.472
100.46
100.447
100.434
100.421
100.409
100.398
100.387
100.377
100.368
100.359
100.352
100.345
100.339
100.334
100.329
100.325
100.322
100.318
100.315
100.312
100.309
100.307
100.304
100.301
100.298
100.296
100.293
100.289
100.286
100.283
100.279
100.276
100.273
100.269
100.266
100.263
100.26
100.257
100.255
100.253
100.252
100.251
100.25
100.251
100.252
100.254
100.256
100.26
100.264
100.27
100.276
100.284
100.292
100.302
100.312
100.324
100.337
100.35
100.365
100.381
100.397
100.415
100.433
100.452
100.472
100.493
100.514
100.535
100.557
100.579
100.602
100.624
100.647
100.67
100.693
100.715
100.737
100.76
100.781
100.803
100.823
100.844
100.863
100.883
100.901
100.919
100.936
100.952
100.967
100.981
100.994
101.007
101.018
101.028
101.037
101.045
101.052
101.058
101.063
101.066
101.068
101.069
99.5916
99.5917
99.5921
99.5924
99.5926
99.5926
99.5922
99.5915
99.5904
99.5892
99.5878
99.5865
99.5855
99.5847
99.5845
99.5848
99.5857
99.5872
99.5893
99.5921
99.5956
99.5998
99.6046
99.6101
99.6163
99.6232
99.6307
99.6387
99.6474
99.6564
99.6658
99.6754
99.6851
99.6947
99.7041
99.713
99.7213
99.7289
99.7354
99.7409
99.7451
99.7481
99.7497
99.75
99.7491
99.747
99.744
99.7403
99.7361
99.7318
99.7277
99.724
99.7211
99.7193
99.7188
99.7197
99.7221
99.7262
99.7318
99.739
99.7475
99.7572
99.7679
99.7793
99.7911
99.8031
99.8149
99.8264
99.8372
99.8472
99.856
99.8637
99.87
99.8749
99.8783
99.8801
99.8806
99.8797
99.8774
99.8741
99.8697
99.8645
99.8587
99.8523
99.8457
99.8389
99.8322
99.8256
99.8193
99.8134
99.8079
99.803
99.7987
99.795
99.7919
99.7895
99.7877
99.7866
99.786
99.7861
99.7867
99.7879
99.7897
99.792
99.7949
99.7983
99.8023
99.807
99.8124
99.8185
99.8254
99.8332
99.842
99.8518
99.8627
99.8748
99.8883
99.9031
99.9193
99.9369
99.956
99.9766
99.9986
100.022
100.047
100.072
100.099
100.127
100.155
100.183
100.212
100.241
100.269
100.296
100.322
100.347
100.371
100.392
100.411
100.428
100.443
100.455
100.464
100.471
100.474
100.476
100.474
100.471
100.465
100.458
100.449
100.438
100.427
100.415
100.403
100.39
100.378
100.366
100.354
100.343
100.333
100.324
100.315
100.308
100.301
100.295
100.291
100.287
100.283
100.281
100.279
100.277
100.276
100.276
100.275
100.275
100.275
100.276
100.276
100.276
100.276
100.277
100.277
100.277
100.278
100.278
100.279
100.279
100.279
100.28
100.281
100.282
100.283
100.284
100.285
100.287
100.29
100.292
100.295
100.299
100.303
100.308
100.313
100.319
100.326
100.333
100.341
100.35
100.36
100.371
100.382
100.394
100.407
100.42
100.435
100.45
100.465
100.482
100.499
100.516
100.534
100.553
100.572
100.591
100.61
100.63
100.65
100.67
100.69
100.71
100.729
100.749
100.769
100.788
100.807
100.825
100.844
100.861
100.879
100.895
100.911
100.927
100.941
100.955
100.968
100.98
100.991
101.001
101.01
101.019
101.025
101.031
101.036
101.039
101.041
101.042
99.592
99.5922
99.5926
99.593
99.5934
99.5936
99.5935
99.5931
99.5925
99.5917
99.5908
99.59
99.5894
99.5892
99.5894
99.5902
99.5915
99.5935
99.596
99.5993
99.6031
99.6076
99.6127
99.6185
99.6248
99.6317
99.6392
99.6472
99.6557
99.6645
99.6736
99.6829
99.6923
99.7015
99.7106
99.7192
99.7273
99.7347
99.7411
99.7466
99.7509
99.7539
99.7558
99.7563
99.7556
99.7539
99.7511
99.7477
99.7437
99.7396
99.7355
99.7318
99.7288
99.7267
99.7257
99.7261
99.7279
99.7312
99.736
99.7421
99.7496
99.7582
99.7677
99.7779
99.7884
99.7991
99.8097
99.8198
99.8294
99.8381
99.8457
99.8522
99.8573
99.861
99.8633
99.8641
99.8636
99.8617
99.8586
99.8544
99.8492
99.8433
99.8367
99.8297
99.8225
99.8151
99.8079
99.8008
99.794
99.7877
99.7818
99.7765
99.7718
99.7677
99.7643
99.7616
99.7595
99.758
99.7571
99.7569
99.7572
99.7581
99.7596
99.7617
99.7643
99.7675
99.7713
99.7758
99.7811
99.787
99.7939
99.8016
99.8103
99.82
99.8309
99.843
99.8564
99.8711
99.8872
99.9047
99.9236
99.9439
99.9656
99.9885
100.013
100.038
100.064
100.091
100.118
100.145
100.173
100.2
100.227
100.253
100.278
100.302
100.324
100.344
100.362
100.378
100.391
100.402
100.41
100.415
100.419
100.419
100.417
100.414
100.408
100.4
100.391
100.381
100.37
100.358
100.346
100.333
100.321
100.309
100.298
100.288
100.278
100.269
100.261
100.254
100.248
100.244
100.24
100.237
100.235
100.233
100.233
100.233
100.234
100.235
100.237
100.24
100.242
100.245
100.249
100.252
100.256
100.26
100.264
100.268
100.273
100.277
100.281
100.286
100.291
100.295
100.3
100.305
100.31
100.315
100.32
100.326
100.331
100.337
100.342
100.348
100.355
100.361
100.368
100.375
100.382
100.39
100.398
100.407
100.416
100.425
100.435
100.445
100.456
100.468
100.479
100.492
100.505
100.518
100.532
100.546
100.56
100.575
100.591
100.606
100.622
100.638
100.655
100.671
100.688
100.705
100.721
100.738
100.755
100.772
100.788
100.805
100.821
100.837
100.852
100.867
100.882
100.896
100.91
100.923
100.935
100.947
100.957
100.967
100.976
100.984
100.99
100.996
101
101.004
101.006
101.007
99.5928
99.5931
99.5936
99.5941
99.5947
99.5951
99.5953
99.5953
99.5951
99.5947
99.5944
99.5941
99.5941
99.5944
99.5952
99.5964
99.5983
99.6007
99.6038
99.6074
99.6117
99.6165
99.6219
99.6279
99.6344
99.6414
99.6489
99.6568
99.6651
99.6737
99.6825
99.6915
99.7005
99.7094
99.7181
99.7264
99.7342
99.7414
99.7477
99.7531
99.7575
99.7607
99.7627
99.7635
99.7631
99.7616
99.7591
99.7559
99.7522
99.7481
99.7441
99.7403
99.7371
99.7346
99.7332
99.733
99.734
99.7364
99.7402
99.7453
99.7516
99.7589
99.7671
99.7759
99.785
99.7943
99.8035
99.8123
99.8205
99.8279
99.8342
99.8395
99.8434
99.846
99.8473
99.8471
99.8456
99.8429
99.839
99.8341
99.8283
99.8217
99.8146
99.8072
99.7995
99.7918
99.7841
99.7767
99.7697
99.7631
99.757
99.7515
99.7466
99.7424
99.7388
99.7359
99.7336
99.732
99.7309
99.7305
99.7307
99.7314
99.7328
99.7347
99.7372
99.7403
99.744
99.7484
99.7536
99.7595
99.7664
99.7741
99.7828
99.7926
99.8036
99.8157
99.8291
99.8438
99.8599
99.8773
99.896
99.916
99.9373
99.9599
99.9834
100.008
100.033
100.059
100.086
100.112
100.139
100.165
100.19
100.215
100.239
100.261
100.282
100.3
100.317
100.332
100.344
100.354
100.361
100.366
100.369
100.369
100.367
100.363
100.357
100.349
100.34
100.33
100.319
100.308
100.296
100.284
100.272
100.261
100.25
100.239
100.23
100.221
100.214
100.207
100.202
100.197
100.194
100.192
100.191
100.19
100.191
100.192
100.194
100.197
100.201
100.205
100.21
100.216
100.221
100.228
100.235
100.242
100.249
100.257
100.265
100.273
100.282
100.29
100.299
100.308
100.317
100.326
100.335
100.344
100.353
100.362
100.371
100.38
100.388
100.397
100.406
100.415
100.423
100.432
100.44
100.449
100.457
100.466
100.475
100.483
100.492
100.501
100.51
100.519
100.529
100.539
100.549
100.559
100.569
100.58
100.591
100.602
100.614
100.625
100.637
100.65
100.662
100.675
100.688
100.701
100.715
100.728
100.742
100.755
100.769
100.783
100.796
100.81
100.823
100.837
100.85
100.862
100.874
100.886
100.897
100.907
100.917
100.926
100.934
100.941
100.948
100.953
100.957
100.96
100.962
100.962
99.5942
99.5945
99.5951
99.5958
99.5965
99.5971
99.5977
99.598
99.5982
99.5984
99.5986
99.5989
99.5994
99.6003
99.6016
99.6034
99.6058
99.6087
99.6122
99.6163
99.6209
99.6262
99.6319
99.6381
99.6448
99.6519
99.6594
99.6672
99.6753
99.6837
99.6922
99.7008
99.7095
99.718
99.7263
99.7344
99.7419
99.7488
99.755
99.7604
99.7647
99.768
99.7701
99.7711
99.771
99.7698
99.7676
99.7646
99.761
99.7571
99.753
99.7491
99.7457
99.7428
99.7409
99.74
99.7402
99.7417
99.7444
99.7484
99.7534
99.7594
99.7662
99.7736
99.7814
99.7893
99.7971
99.8045
99.8114
99.8175
99.8226
99.8267
99.8296
99.8313
99.8316
99.8307
99.8284
99.8251
99.8206
99.8152
99.8089
99.802
99.7947
99.787
99.7791
99.7713
99.7636
99.7561
99.749
99.7424
99.7364
99.7309
99.726
99.7218
99.7183
99.7153
99.7131
99.7114
99.7104
99.71
99.7101
99.7108
99.7121
99.714
99.7165
99.7196
99.7233
99.7278
99.733
99.739
99.7459
99.7537
99.7625
99.7725
99.7835
99.7957
99.8092
99.8239
99.84
99.8573
99.8759
99.8957
99.9167
99.9388
99.9619
99.9858
100.01
100.036
100.061
100.087
100.112
100.137
100.162
100.185
100.208
100.229
100.248
100.266
100.282
100.295
100.307
100.316
100.323
100.327
100.329
100.329
100.327
100.323
100.318
100.311
100.302
100.292
100.282
100.271
100.259
100.248
100.236
100.225
100.215
100.205
100.195
100.187
100.179
100.173
100.168
100.163
100.16
100.158
100.157
100.157
100.158
100.16
100.163
100.167
100.172
100.177
100.184
100.191
100.198
100.207
100.216
100.225
100.235
100.246
100.257
100.268
100.28
100.292
100.304
100.317
100.329
100.342
100.355
100.367
100.38
100.393
100.405
100.417
100.429
100.441
100.452
100.464
100.474
100.485
100.495
100.505
100.514
100.523
100.532
100.541
100.549
100.557
100.565
100.573
100.58
100.587
100.595
100.602
100.609
100.617
100.624
100.632
100.64
100.648
100.656
100.664
100.673
100.682
100.691
100.7
100.71
100.72
100.73
100.74
100.751
100.761
100.772
100.783
100.794
100.804
100.815
100.825
100.836
100.845
100.855
100.864
100.872
100.88
100.886
100.893
100.898
100.902
100.906
100.908
100.91
100.911
99.5963
99.5967
99.5973
99.5981
99.5989
99.5998
99.6006
99.6013
99.602
99.6026
99.6033
99.6042
99.6053
99.6067
99.6086
99.6109
99.6137
99.6171
99.6211
99.6256
99.6307
99.6362
99.6423
99.6487
99.6556
99.6627
99.6702
99.678
99.686
99.6941
99.7023
99.7106
99.7189
99.7271
99.7351
99.7427
99.75
99.7567
99.7627
99.7679
99.7723
99.7756
99.7779
99.779
99.7791
99.7781
99.7761
99.7733
99.7699
99.766
99.7619
99.7579
99.7542
99.751
99.7485
99.7469
99.7464
99.7469
99.7486
99.7514
99.7552
99.76
99.7655
99.7715
99.778
99.7846
99.7911
99.7973
99.803
99.808
99.8121
99.8153
99.8173
99.8182
99.8179
99.8163
99.8137
99.8099
99.8051
99.7995
99.7931
99.7861
99.7788
99.7711
99.7634
99.7557
99.7481
99.7409
99.734
99.7276
99.7218
99.7166
99.7119
99.7079
99.7046
99.7019
99.6997
99.6982
99.6973
99.697
99.6972
99.6981
99.6994
99.7014
99.7039
99.7071
99.7109
99.7154
99.7207
99.7268
99.7339
99.7418
99.7508
99.7608
99.772
99.7843
99.7979
99.8126
99.8286
99.8459
99.8643
99.8839
99.9046
99.9263
99.9489
99.9722
99.9962
100.021
100.045
100.07
100.094
100.118
100.142
100.164
100.186
100.206
100.224
100.241
100.256
100.269
100.28
100.289
100.296
100.3
100.303
100.303
100.301
100.298
100.293
100.286
100.279
100.27
100.26
100.25
100.239
100.228
100.217
100.207
100.197
100.187
100.178
100.169
100.162
100.155
100.15
100.145
100.142
100.14
100.139
100.139
100.14
100.142
100.145
100.149
100.154
100.16
100.167
100.175
100.184
100.193
100.204
100.215
100.226
100.239
100.252
100.265
100.279
100.294
100.308
100.323
100.339
100.354
100.37
100.386
100.401
100.417
100.432
100.448
100.462
100.477
100.491
100.505
100.518
100.53
100.542
100.554
100.565
100.575
100.584
100.593
100.601
100.609
100.616
100.623
100.629
100.635
100.64
100.645
100.65
100.655
100.659
100.663
100.668
100.672
100.677
100.681
100.686
100.691
100.697
100.702
100.708
100.714
100.721
100.727
100.734
100.742
100.749
100.757
100.765
100.772
100.78
100.788
100.795
100.803
100.81
100.817
100.823
100.829
100.834
100.839
100.843
100.846
100.849
100.851
100.852
100.853
99.5991
99.5995
99.6002
99.601
99.602
99.6031
99.6041
99.6052
99.6062
99.6074
99.6086
99.61
99.6116
99.6136
99.6159
99.6187
99.622
99.6259
99.6302
99.6351
99.6405
99.6464
99.6527
99.6594
99.6664
99.6736
99.6811
99.6888
99.6966
99.7045
99.7125
99.7205
99.7285
99.7363
99.7439
99.7513
99.7582
99.7647
99.7705
99.7756
99.7798
99.7831
99.7854
99.7867
99.7869
99.7861
99.7843
99.7817
99.7784
99.7746
99.7705
99.7664
99.7625
99.7589
99.756
99.7538
99.7525
99.7522
99.753
99.7547
99.7575
99.7611
99.7654
99.7703
99.7756
99.781
99.7865
99.7916
99.7964
99.8005
99.8038
99.8063
99.8077
99.8081
99.8074
99.8056
99.8027
99.7988
99.794
99.7884
99.7822
99.7754
99.7683
99.761
99.7535
99.7462
99.7391
99.7322
99.7258
99.7198
99.7144
99.7095
99.7053
99.7016
99.6986
99.6961
99.6943
99.693
99.6923
99.6921
99.6925
99.6935
99.6949
99.697
99.6996
99.7029
99.7068
99.7114
99.7168
99.7231
99.7302
99.7383
99.7473
99.7575
99.7687
99.7811
99.7947
99.8094
99.8254
99.8425
99.8607
99.8801
99.9004
99.9216
99.9437
99.9664
99.9896
100.013
100.037
100.061
100.084
100.107
100.13
100.151
100.172
100.191
100.209
100.226
100.24
100.253
100.264
100.273
100.28
100.285
100.288
100.289
100.288
100.286
100.282
100.277
100.27
100.262
100.254
100.245
100.235
100.225
100.215
100.205
100.196
100.186
100.178
100.17
100.162
100.156
100.15
100.145
100.142
100.139
100.138
100.137
100.138
100.14
100.143
100.147
100.152
100.158
100.165
100.173
100.182
100.191
100.202
100.214
100.226
100.239
100.253
100.267
100.282
100.298
100.314
100.331
100.348
100.365
100.382
100.4
100.418
100.435
100.453
100.47
100.487
100.504
100.52
100.536
100.551
100.566
100.58
100.593
100.605
100.616
100.627
100.637
100.645
100.653
100.661
100.667
100.672
100.677
100.681
100.685
100.688
100.691
100.693
100.695
100.696
100.698
100.699
100.7
100.702
100.704
100.705
100.707
100.709
100.712
100.715
100.718
100.721
100.725
100.729
100.733
100.737
100.742
100.746
100.751
100.755
100.76
100.764
100.768
100.772
100.776
100.779
100.782
100.784
100.786
100.788
100.789
100.79
100.79
99.6026
99.603
99.6037
99.6046
99.6057
99.6069
99.6082
99.6096
99.611
99.6126
99.6143
99.6161
99.6183
99.6207
99.6235
99.6268
99.6305
99.6347
99.6394
99.6446
99.6503
99.6564
99.663
99.6698
99.6769
99.6842
99.6917
99.6993
99.707
99.7147
99.7225
99.7302
99.7379
99.7454
99.7527
99.7597
99.7663
99.7725
99.778
99.783
99.7871
99.7903
99.7926
99.7939
99.7943
99.7936
99.792
99.7895
99.7864
99.7827
99.7787
99.7745
99.7704
99.7666
99.7633
99.7607
99.7589
99.7579
99.7579
99.7588
99.7606
99.7633
99.7667
99.7706
99.775
99.7795
99.7841
99.7885
99.7925
99.796
99.7988
99.8008
99.8019
99.802
99.8011
99.7992
99.7964
99.7927
99.7881
99.7828
99.7769
99.7705
99.7639
99.757
99.7501
99.7433
99.7367
99.7304
99.7245
99.7191
99.7141
99.7097
99.7059
99.7026
99.7
99.6978
99.6963
99.6952
99.6947
99.6947
99.6952
99.6963
99.6978
99.6999
99.7026
99.7059
99.7099
99.7146
99.7201
99.7264
99.7336
99.7417
99.7508
99.761
99.7722
99.7846
99.7981
99.8128
99.8286
99.8455
99.8634
99.8824
99.9022
99.923
99.9444
99.9664
99.9889
100.012
100.035
100.058
100.08
100.102
100.124
100.145
100.165
100.184
100.201
100.217
100.232
100.245
100.256
100.265
100.273
100.278
100.282
100.285
100.285
100.285
100.282
100.278
100.274
100.268
100.261
100.253
100.245
100.237
100.228
100.219
100.21
100.202
100.193
100.186
100.179
100.172
100.167
100.162
100.158
100.155
100.154
100.153
100.153
100.155
100.157
100.16
100.165
100.171
100.177
100.185
100.193
100.202
100.213
100.224
100.236
100.249
100.263
100.277
100.292
100.308
100.324
100.341
100.358
100.376
100.394
100.412
100.431
100.45
100.468
100.487
100.505
100.523
100.541
100.558
100.574
100.59
100.606
100.62
100.634
100.647
100.658
100.669
100.679
100.688
100.695
100.702
100.708
100.712
100.716
100.719
100.721
100.722
100.723
100.723
100.723
100.722
100.721
100.72
100.719
100.718
100.716
100.715
100.714
100.713
100.712
100.712
100.711
100.711
100.711
100.712
100.712
100.713
100.714
100.715
100.716
100.717
100.718
100.719
100.72
100.721
100.722
100.723
100.724
100.724
100.725
100.725
100.725
100.725
99.6066
99.6071
99.6078
99.6088
99.6099
99.6113
99.6128
99.6144
99.6162
99.6182
99.6203
99.6227
99.6252
99.6281
99.6313
99.6349
99.6389
99.6435
99.6484
99.6539
99.6598
99.6661
99.6728
99.6797
99.6869
99.6943
99.7017
99.7092
99.7168
99.7244
99.7319
99.7394
99.7468
99.754
99.7609
99.7676
99.7739
99.7798
99.7851
99.7898
99.7938
99.7969
99.7992
99.8005
99.8009
99.8004
99.799
99.7967
99.7937
99.7902
99.7863
99.7822
99.7782
99.7743
99.7708
99.7679
99.7657
99.7643
99.7637
99.764
99.7652
99.7672
99.7699
99.7731
99.7768
99.7807
99.7846
99.7885
99.792
99.7951
99.7976
99.7994
99.8003
99.8004
99.7996
99.7978
99.7952
99.7918
99.7876
99.7827
99.7773
99.7715
99.7654
99.7591
99.7528
99.7466
99.7406
99.7349
99.7295
99.7246
99.7202
99.7162
99.7128
99.7099
99.7075
99.7057
99.7043
99.7034
99.7031
99.7032
99.7038
99.7049
99.7065
99.7086
99.7113
99.7146
99.7185
99.7232
99.7287
99.7349
99.7421
99.7502
99.7593
99.7694
99.7805
99.7928
99.8061
99.8206
99.8361
99.8526
99.8701
99.8886
99.9079
99.928
99.9488
99.97
99.9917
100.014
100.036
100.058
100.08
100.101
100.122
100.142
100.161
100.18
100.197
100.213
100.227
100.241
100.252
100.262
100.271
100.278
100.283
100.287
100.289
100.29
100.29
100.288
100.285
100.281
100.277
100.271
100.265
100.258
100.251
100.243
100.236
100.228
100.221
100.214
100.208
100.202
100.196
100.192
100.188
100.185
100.183
100.182
100.182
100.183
100.185
100.188
100.192
100.197
100.203
100.21
100.218
100.227
100.236
100.247
100.258
100.27
100.283
100.296
100.31
100.325
100.341
100.357
100.374
100.391
100.408
100.426
100.444
100.462
100.481
100.499
100.518
100.536
100.554
100.571
100.589
100.605
100.621
100.637
100.651
100.665
100.678
100.69
100.7
100.71
100.719
100.726
100.732
100.738
100.742
100.745
100.747
100.748
100.748
100.748
100.746
100.745
100.742
100.739
100.736
100.732
100.729
100.725
100.721
100.717
100.713
100.709
100.705
100.701
100.697
100.694
100.69
100.687
100.684
100.681
100.679
100.676
100.674
100.671
100.669
100.668
100.666
100.664
100.663
100.662
100.661
100.66
100.66
100.659
99.6112
99.6117
99.6124
99.6134
99.6146
99.6161
99.6178
99.6197
99.6218
99.6242
99.6267
99.6294
99.6324
99.6356
99.6391
99.643
99.6473
99.6521
99.6572
99.6628
99.6689
99.6753
99.682
99.689
99.6962
99.7036
99.711
99.7184
99.7259
99.7333
99.7406
99.7479
99.755
99.7618
99.7685
99.7749
99.7809
99.7865
99.7915
99.796
99.7998
99.8028
99.805
99.8064
99.8069
99.8065
99.8052
99.8032
99.8005
99.7973
99.7936
99.7898
99.7859
99.7821
99.7786
99.7757
99.7733
99.7717
99.7709
99.7708
99.7716
99.7732
99.7754
99.7782
99.7814
99.7849
99.7885
99.792
99.7952
99.7981
99.8005
99.8022
99.8031
99.8033
99.8027
99.8012
99.7989
99.7958
99.792
99.7877
99.7828
99.7775
99.772
99.7663
99.7606
99.755
99.7496
99.7444
99.7395
99.7351
99.731
99.7275
99.7244
99.7217
99.7196
99.7179
99.7167
99.7159
99.7156
99.7157
99.7163
99.7174
99.7189
99.721
99.7236
99.7268
99.7307
99.7353
99.7407
99.7468
99.7539
99.7619
99.7708
99.7808
99.7918
99.8038
99.8169
99.831
99.8461
99.8622
99.8792
99.897
99.9157
99.935
99.9549
99.9754
99.9962
100.017
100.038
100.059
100.08
100.101
100.121
100.141
100.159
100.177
100.194
100.21
100.225
100.239
100.251
100.262
100.272
100.28
100.287
100.292
100.297
100.3
100.301
100.302
100.301
100.3
100.297
100.294
100.29
100.285
100.279
100.274
100.268
100.262
100.256
100.25
100.244
100.239
100.234
100.23
100.227
100.224
100.223
100.222
100.221
100.222
100.224
100.227
100.23
100.235
100.24
100.246
100.253
100.261
100.27
100.279
100.29
100.3
100.312
100.324
100.337
100.351
100.365
100.379
100.395
100.41
100.426
100.443
100.459
100.476
100.493
100.511
100.528
100.545
100.563
100.58
100.597
100.613
100.629
100.645
100.659
100.674
100.687
100.699
100.711
100.721
100.731
100.739
100.746
100.753
100.758
100.761
100.764
100.766
100.766
100.766
100.765
100.762
100.759
100.756
100.751
100.746
100.741
100.735
100.728
100.722
100.715
100.708
100.701
100.693
100.686
100.679
100.672
100.665
100.658
100.651
100.644
100.638
100.632
100.626
100.621
100.616
100.611
100.607
100.604
100.601
100.599
100.597
100.596
100.595
99.6162
99.6167
99.6174
99.6184
99.6197
99.6213
99.6232
99.6253
99.6277
99.6304
99.6333
99.6364
99.6396
99.6432
99.647
99.6511
99.6555
99.6604
99.6656
99.6713
99.6774
99.6838
99.6906
99.6975
99.7047
99.712
99.7193
99.7266
99.734
99.7412
99.7484
99.7554
99.7622
99.7689
99.7752
99.7813
99.787
99.7923
99.7971
99.8014
99.805
99.8079
99.8101
99.8115
99.8121
99.8119
99.811
99.8093
99.8069
99.8041
99.8008
99.7973
99.7938
99.7903
99.7871
99.7843
99.782
99.7804
99.7796
99.7794
99.7801
99.7814
99.7835
99.786
99.789
99.7922
99.7956
99.7989
99.802
99.8048
99.8071
99.8088
99.8099
99.8102
99.8098
99.8086
99.8066
99.8039
99.8006
99.7967
99.7923
99.7876
99.7826
99.7774
99.7722
99.7671
99.7621
99.7574
99.7529
99.7488
99.7451
99.7418
99.7389
99.7365
99.7345
99.7329
99.7317
99.7309
99.7306
99.7307
99.7312
99.7321
99.7336
99.7355
99.738
99.7412
99.7449
99.7494
99.7547
99.7607
99.7676
99.7755
99.7842
99.794
99.8047
99.8164
99.8292
99.8428
99.8575
99.873
99.8894
99.9066
99.9245
99.943
99.962
99.9815
100.001
100.021
100.041
100.062
100.082
100.101
100.121
100.139
100.158
100.175
100.192
100.208
100.223
100.237
100.25
100.262
100.273
100.283
100.291
100.299
100.305
100.31
100.314
100.317
100.318
100.319
100.319
100.318
100.316
100.313
100.31
100.306
100.302
100.297
100.293
100.288
100.284
100.28
100.276
100.272
100.27
100.268
100.266
100.266
100.266
100.267
100.269
100.271
100.275
100.279
100.284
100.29
100.296
100.303
100.311
100.32
100.329
100.338
100.349
100.36
100.371
100.383
100.395
100.408
100.421
100.435
100.449
100.463
100.478
100.493
100.508
100.524
100.539
100.555
100.57
100.586
100.602
100.617
100.632
100.647
100.661
100.675
100.688
100.7
100.712
100.723
100.733
100.743
100.751
100.758
100.764
100.769
100.773
100.775
100.777
100.777
100.776
100.775
100.772
100.768
100.763
100.757
100.751
100.744
100.736
100.727
100.718
100.708
100.698
100.688
100.677
100.666
100.655
100.644
100.634
100.623
100.613
100.602
100.593
100.584
100.575
100.567
100.56
100.554
100.548
100.543
100.54
100.537
100.535
100.534
99.6214
99.6219
99.6226
99.6237
99.625
99.6267
99.6288
99.6312
99.6339
99.6368
99.64
99.6434
99.647
99.6507
99.6547
99.659
99.6635
99.6684
99.6736
99.6793
99.6853
99.6916
99.6983
99.7051
99.7122
99.7193
99.7266
99.7338
99.741
99.7481
99.7551
99.7619
99.7685
99.7749
99.781
99.7869
99.7923
99.7974
99.8019
99.806
99.8095
99.8124
99.8146
99.8161
99.8169
99.8169
99.8163
99.815
99.8132
99.8108
99.8081
99.8052
99.8021
99.7991
99.7963
99.7939
99.792
99.7906
99.7899
99.7898
99.7905
99.7919
99.7938
99.7963
99.7991
99.8022
99.8055
99.8087
99.8117
99.8145
99.8168
99.8186
99.8197
99.8202
99.8199
99.819
99.8173
99.815
99.812
99.8085
99.8045
99.8002
99.7957
99.791
99.7862
99.7815
99.7769
99.7725
99.7683
99.7645