# vtk DataFile Version 2.0
HPC Tutorials: Michael Bader, Kaveh Rahnema, Oliver Meister
ASCII
DATASET RECTILINEAR_GRID
DIMENSIONS 257 257 1
X_COORDINATES 257 float
0
0.005
0.01
0.015
0.02
0.025
0.03
0.035
0.04
0.045
0.05
0.055
0.06
0.065
0.07
0.075
0.08
0.085
0.09
0.095
0.1
0.105
0.11
0.115
0.12
0.125
0.13
0.135
0.14
0.145
0.15
0.155
0.16
0.165
0.17
0.175
0.18
0.185
0.19
0.195
0.2
0.205
0.21
0.215
0.22
0.225
0.23
0.235
0.24
0.245
0.25
0.255
0.26
0.265
0.27
0.275
0.28
0.285
0.29
0.295
0.3
0.305
0.31
0.315
0.32
0.325
0.33
0.335
0.34
0.345
0.35
0.355
0.36
0.365
0.37
0.375
0.38
0.385
0.39
0.395
0.4
0.405
0.41
0.415
0.42
0.425
0.43
0.435
0.44
0.445
0.45
0.455
0.46
0.465
0.47
0.475
0.48
0.485
0.49
0.495
0.5
0.505
0.51
0.515
0.52
0.525
0.53
0.535
0.54
0.545
0.55
0.555
0.56
0.565
0.57
0.575
0.58
0.585
0.59
0.595
0.6
0.605
0.61
0.615
0.62
0.625
0.63
0.635
0.64
0.645
0.65
0.655
0.66
0.665
0.67
0.675
0.68
0.685
0.69
0.695
0.7
0.705
0.71
0.715
0.72
0.725
0.73
0.735
0.74
0.745
0.75
0.755
0.76
0.765
0.77
0.775
0.78
0.785
0.79
0.795
0.8
0.805
0.81
0.815
0.82
0.825
0.83
0.835
0.84
0.845
0.85
0.855
0.86
0.865
0.87
0.875
0.88
0.885
0.89
0.895
0.9
0.905
0.91
0.915
0.92
0.925
0.93
0.935
0.94
0.945
0.95
0.955
0.96
0.965
0.97
0.975
0.98
0.985
0.99
0.995
1
1.005
1.01
1.015
1.02
1.025
1.03
1.035
1.04
1.045
1.05
1.055
1.06
1.065
1.07
1.075
1.08
1.085
1.09
1.095
1.1
1.105
1.11
1.115
1.12
1.125
1.13
1.135
1.14
1.145
1.15
1.155
1.16
1.165
1.17
1.175
1.18
1.185
1.19
1.195
1.2
1.205
1.21
1.215
1.22
1.225
1.23
1.235
1.24
1.245
1.25
1.255
1.26
1.265
1.27
1.275
1.28
Y_COORDINATES 257 float
0
0.005
0.01
0.015
0.02
0.025
0.03
0.035
0.04
0.045
0.05
0.055
0.06
0.065
0.07
0.075
0.08
0.085
0.09
0.095
0.1
0.105
0.11
0.115
0.12
0.125
0.13
0.135
0.14
0.145
0.15
0.155
0.16
0.165
0.17
0.175
0.18
0.185
0.19
0.195
0.2
0.205
0.21
0.215
0.22
0.225
0.23
0.235
0.24
0.245
0.25
0.255
0.26
0.265
0.27
0.275
0.28
0.285
0.29
0.295
0.3
0.305
0.31
0.315
0.32
0.325
0.33
0.335
0.34
0.345
0.35
0.355
0.36
0.365
0.37
0.375
0.38
0.385
0.39
0.395
0.4
0.405
0.41
0.415
0.42
0.425
0.43
0.435
0.44
0.445
0.45
0.455
0.46
0.465
0.47
0.475
0.48
0.485
0.49
0.495
0.5
0.505
0.51
0.515
0.52
0.525
0.53
0.535
0.54
0.545
0.55
0.555
0.56
0.565
0.57
0.575
0.58
0.585
0.59
0.595
0.6
0.605
0.61
0.615
0.62
0.625
0.63
0.635
0.64
0.645
0.65
0.655
0.66
0.665
0.67
0.675
0.68
0.685
0.69
0.695
0.7
0.705
0.71
0.715
0.72
0.725
0.73
0.735
0.74
0.745
0.75
0.755
0.76
0.765
0.77
0.775
0.78
0.785
0.79
0.795
0.8
0.805
0.81
0.815
0.82
0.825
0.83
0.835
0.84
0.845
0.85
0.855
0.86
0.865
0.87
0.875
0.88
0.885
0.89
0.895
0.9
0.905
0.91
0.915
0.92
0.925
0.93
0.935
0.94
0.945
0.95
0.955
0.96
0.965
0.97
0.975
0.98
0.985
0.99
0.995
1
1.005
1.01
1.015
1.02
1.025
1.03
1.035
1.04
1.045
1.05
1.055
1.06
1.065
1.07
1.075
1.08
1.085
1.09
1.095
1.1
1.105
1.11
1.115
1.12
1.125
1.13
1.135
1.14
1.145
1.15
1.155
1.16
1.165
1.17
1.175
1.18
1.185
1.19
1.195
1.2
1.205
1.21
1.215
1.22
1.225
1.23
1.235
1.24
1.245
1.25
1.255
1.26
1.265
1.27
1.275
1.28
Z_COORDINATES 1 float
0
CELL_DATA 65536
SCALARS H float 1
LOOKUP_TABLE default
100.301
100.3
100.299
100.297
100.295
100.292
100.288
100.285
100.28
100.275
100.27
100.264
100.258
100.252
100.245
100.238
100.231
100.224
100.217
100.209
100.202
100.194
100.187
100.18
100.173
100.166
100.16
100.154
100.148
100.143
100.139
100.135
100.131
100.128
100.125
100.123
100.122
100.121
100.12
100.12
100.12
100.121
100.122
100.123
100.125
100.127
100.13
100.133
100.136
100.139
100.143
100.148
100.153
100.158
100.163
100.169
100.175
100.181
100.188
100.194
100.201
100.208
100.215
100.221
100.228
100.235
100.241
100.247
100.253
100.258
100.263
100.268
100.273
100.278
100.282
100.287
100.291
100.295
100.3
100.304
100.309
100.313
100.318
100.323
100.328
100.333
100.338
100.344
100.35
100.356
100.362
100.369
100.375
100.383
100.39
100.398
100.406
100.415
100.424
100.434
100.444
100.455
100.467
100.479
100.491
100.504
100.518
100.532
100.546
100.561
100.576
100.592
100.608
100.623
100.638
100.653
100.668
100.681
100.694
100.705
100.714
100.722
100.728
100.732
100.734
100.735
100.733
100.729
100.723
100.716
100.707
100.698
100.687
100.675
100.663
100.651
100.638
100.626
100.615
100.603
100.593
100.583
100.575
100.567
100.56
100.555
100.55
100.546
100.544
100.542
100.541
100.54
100.541
100.541
100.543
100.544
100.546
100.548
100.55
100.551
100.553
100.554
100.555
100.556
100.556
100.556
100.556
100.554
100.553
100.551
100.548
100.545
100.541
100.537
100.532
100.527
100.521
100.515
100.508
100.501
100.493
100.485
100.477
100.468
100.459
100.449
100.44
100.43
100.42
100.41
100.4
100.39
100.381
100.372
100.363
100.355
100.348
100.341
100.336
100.331
100.328
100.326
100.325
100.326
100.328
100.332
100.337
100.344
100.353
100.364
100.376
100.389
100.405
100.421
100.44
100.459
100.479
100.501
100.523
100.545
100.568
100.591
100.615
100.637
100.66
100.682
100.703
100.722
100.741
100.758
100.774
100.789
100.801
100.812
100.822
100.829
100.835
100.839
100.842
100.844
100.844
100.843
100.841
100.838
100.834
100.83
100.826
100.822
100.818
100.814
100.81
100.807
100.805
100.803
100.801
100.801
100.3
100.3
100.298
100.296
100.294
100.291
100.288
100.284
100.28
100.275
100.27
100.264
100.258
100.252
100.245
100.238
100.231
100.224
100.217
100.209
100.202
100.194
100.187
100.18
100.173
100.167
100.16
100.154
100.149
100.144
100.139
100.135
100.132
100.129
100.126
100.124
100.122
100.121
100.121
100.121
100.121
100.122
100.123
100.124
100.126
100.128
100.131
100.134
100.137
100.141
100.145
100.149
100.154
100.159
100.164
100.17
100.176
100.182
100.188
100.195
100.202
100.208
100.215
100.222
100.228
100.234
100.24
100.246
100.252
100.257
100.262
100.267
100.272
100.277
100.281
100.285
100.29
100.294
100.298
100.303
100.307
100.312
100.317
100.322
100.327
100.332
100.338
100.343
100.349
100.355
100.362
100.368
100.375
100.383
100.39
100.399
100.407
100.416
100.425
100.435
100.446
100.457
100.468
100.48
100.493
100.506
100.52
100.534
100.549
100.563
100.579
100.594
100.61
100.625
100.64
100.655
100.669
100.682
100.694
100.705
100.714
100.721
100.727
100.731
100.733
100.733
100.731
100.727
100.721
100.714
100.705
100.696
100.685
100.673
100.662
100.649
100.637
100.626
100.614
100.603
100.593
100.584
100.575
100.568
100.561
100.555
100.551
100.547
100.545
100.543
100.541
100.541
100.541
100.542
100.543
100.544
100.546
100.547
100.549
100.551
100.552
100.553
100.554
100.555
100.555
100.554
100.554
100.552
100.551
100.549
100.546
100.543
100.539
100.535
100.53
100.525
100.519
100.513
100.506
100.499
100.492
100.484
100.476
100.467
100.458
100.449
100.439
100.43
100.42
100.41
100.401
100.391
100.382
100.373
100.365
100.357
100.35
100.344
100.339
100.335
100.332
100.33
100.329
100.33
100.333
100.337
100.342
100.35
100.359
100.369
100.381
100.395
100.41
100.427
100.445
100.464
100.484
100.505
100.527
100.549
100.572
100.595
100.617
100.64
100.662
100.683
100.703
100.723
100.741
100.758
100.773
100.787
100.8
100.81
100.819
100.826
100.832
100.836
100.839
100.84
100.84
100.839
100.837
100.834
100.831
100.827
100.823
100.819
100.814
100.81
100.807
100.804
100.801
100.799
100.798
100.798
100.299
100.298
100.297
100.295
100.293
100.29
100.287
100.283
100.279
100.274
100.269
100.264
100.258
100.252
100.245
100.238
100.231
100.224
100.217
100.209
100.202
100.195
100.187
100.18
100.174
100.167
100.161
100.155
100.149
100.144
100.14
100.136
100.132
100.129
100.127
100.125
100.123
100.122
100.122
100.122
100.122
100.123
100.124
100.126
100.128
100.13
100.132
100.135
100.139
100.142
100.146
100.151
100.155
100.16
100.166
100.171
100.177
100.183
100.189
100.196
100.202
100.209
100.215
100.221
100.228
100.234
100.24
100.245
100.251
100.256
100.261
100.266
100.27
100.275
100.279
100.284
100.288
100.292
100.297
100.301
100.306
100.31
100.315
100.32
100.326
100.331
100.337
100.343
100.349
100.355
100.362
100.369
100.376
100.383
100.391
100.4
100.408
100.418
100.427
100.437
100.448
100.459
100.471
100.483
100.496
100.509
100.523
100.537
100.552
100.567
100.582
100.597
100.612
100.627
100.642
100.656
100.67
100.682
100.694
100.704
100.712
100.719
100.725
100.728
100.729
100.729
100.727
100.723
100.717
100.71
100.701
100.692
100.682
100.67
100.659
100.647
100.636
100.624
100.613
100.603
100.593
100.584
100.576
100.568
100.562
100.557
100.552
100.549
100.546
100.544
100.543
100.542
100.542
100.542
100.543
100.544
100.545
100.547
100.548
100.549
100.55
100.551
100.552
100.552
100.552
100.551
100.551
100.549
100.548
100.545
100.543
100.539
100.536
100.532
100.527
100.522
100.516
100.51
100.504
100.497
100.489
100.482
100.473
100.465
100.456
100.447
100.438
100.429
100.419
100.41
100.401
100.392
100.383
100.375
100.367
100.36
100.354
100.348
100.343
100.34
100.337
100.336
100.336
100.337
100.34
100.345
100.351
100.358
100.367
100.378
100.39
100.404
100.419
100.436
100.454
100.472
100.492
100.513
100.534
100.556
100.578
100.6
100.622
100.644
100.665
100.686
100.705
100.724
100.742
100.758
100.773
100.786
100.798
100.808
100.816
100.823
100.829
100.832
100.835
100.836
100.835
100.834
100.832
100.829
100.826
100.822
100.817
100.813
100.809
100.805
100.802
100.798
100.796
100.794
100.793
100.792
100.297
100.297
100.296
100.294
100.292
100.289
100.286
100.282
100.278
100.274
100.269
100.263
100.257
100.251
100.245
100.238
100.231
100.224
100.217
100.21
100.202
100.195
100.188
100.181
100.174
100.168
100.162
100.156
100.15
100.145
100.141
100.137
100.134
100.131
100.128
100.127
100.125
100.124
100.124
100.124
100.124
100.125
100.126
100.128
100.13
100.132
100.135
100.138
100.141
100.145
100.149
100.153
100.158
100.162
100.168
100.173
100.179
100.185
100.191
100.197
100.203
100.209
100.215
100.221
100.227
100.233
100.238
100.244
100.249
100.254
100.259
100.264
100.268
100.272
100.277
100.281
100.286
100.29
100.294
100.299
100.304
100.309
100.314
100.319
100.324
100.33
100.336
100.342
100.348
100.355
100.362
100.369
100.376
100.384
100.392
100.401
100.41
100.419
100.429
100.44
100.451
100.462
100.474
100.487
100.5
100.513
100.527
100.541
100.556
100.571
100.586
100.601
100.615
100.63
100.644
100.658
100.67
100.682
100.693
100.702
100.71
100.716
100.721
100.723
100.724
100.724
100.721
100.717
100.711
100.704
100.696
100.687
100.677
100.666
100.655
100.644
100.633
100.622
100.612
100.602
100.593
100.584
100.577
100.57
100.564
100.559
100.555
100.551
100.548
100.547
100.545
100.544
100.544
100.544
100.545
100.545
100.546
100.547
100.548
100.548
100.549
100.549
100.549
100.549
100.549
100.548
100.547
100.546
100.544
100.542
100.539
100.536
100.532
100.528
100.523
100.518
100.513
100.507
100.5
100.494
100.486
100.479
100.471
100.463
100.454
100.446
100.437
100.428
100.419
100.41
100.401
100.393
100.385
100.377
100.37
100.364
100.358
100.353
100.349
100.346
100.344
100.344
100.344
100.346
100.35
100.355
100.361
100.369
100.378
100.389
100.402
100.415
100.431
100.447
100.464
100.483
100.502
100.522
100.543
100.564
100.586
100.607
100.628
100.649
100.67
100.689
100.708
100.726
100.743
100.758
100.772
100.785
100.796
100.805
100.813
100.82
100.824
100.828
100.83
100.83
100.83
100.828
100.826
100.823
100.819
100.815
100.811
100.806
100.802
100.798
100.795
100.791
100.789
100.787
100.786
100.785
100.295
100.295
100.294
100.292
100.29
100.287
100.284
100.281
100.277
100.272
100.268
100.262
100.257
100.251
100.244
100.238
100.231
100.224
100.217
100.21
100.203
100.195
100.188
100.182
100.175
100.169
100.163
100.157
100.152
100.147
100.143
100.139
100.136
100.133
100.13
100.129
100.127
100.127
100.126
100.126
100.127
100.128
100.129
100.131
100.133
100.135
100.138
100.141
100.144
100.148
100.151
100.156
100.16
100.165
100.17
100.175
100.18
100.186
100.192
100.198
100.203
100.209
100.215
100.221
100.226
100.232
100.237
100.242
100.247
100.252
100.256
100.261
100.265
100.27
100.274
100.279
100.283
100.287
100.292
100.297
100.302
100.307
100.312
100.317
100.323
100.329
100.335
100.341
100.348
100.355
100.362
100.369
100.377
100.385
100.394
100.403
100.412
100.422
100.432
100.443
100.454
100.466
100.478
100.491
100.504
100.517
100.531
100.546
100.56
100.575
100.589
100.604
100.618
100.632
100.646
100.658
100.67
100.681
100.691
100.699
100.706
100.711
100.715
100.717
100.717
100.716
100.714
100.709
100.704
100.697
100.689
100.68
100.671
100.661
100.651
100.641
100.631
100.621
100.611
100.602
100.594
100.586
100.579
100.572
100.567
100.562
100.558
100.555
100.553
100.551
100.549
100.548
100.548
100.548
100.548
100.548
100.548
100.548
100.548
100.549
100.549
100.548
100.548
100.548
100.547
100.546
100.544
100.543
100.54
100.538
100.535
100.532
100.528
100.524
100.52
100.515
100.509
100.503
100.497
100.49
100.483
100.476
100.468
100.46
100.452
100.444
100.435
100.427
100.418
100.41
100.402
100.394
100.387
100.38
100.373
100.368
100.363
100.359
100.356
100.353
100.352
100.352
100.354
100.357
100.361
100.366
100.373
100.381
100.391
100.402
100.414
100.428
100.443
100.459
100.477
100.495
100.514
100.533
100.553
100.574
100.594
100.615
100.635
100.655
100.675
100.694
100.712
100.729
100.745
100.759
100.772
100.784
100.794
100.803
100.81
100.816
100.82
100.823
100.824
100.825
100.824
100.822
100.819
100.816
100.812
100.808
100.803
100.799
100.795
100.791
100.787
100.784
100.781
100.779
100.778
100.778
100.293
100.292
100.291
100.29
100.288
100.285
100.282
100.279
100.275
100.271
100.266
100.261
100.256
100.25
100.244
100.237
100.231
100.224
100.217
100.21
100.203
100.196
100.189
100.182
100.176
100.17
100.164
100.158
100.153
100.149
100.145
100.141
100.138
100.135
100.133
100.132
100.131
100.13
100.13
100.13
100.13
100.131
100.133
100.134
100.136
100.138
100.141
100.144
100.147
100.151
100.155
100.159
100.163
100.167
100.172
100.177
100.182
100.187
100.193
100.198
100.204
100.209
100.214
100.22
100.225
100.23
100.235
100.24
100.245
100.249
100.254
100.258
100.263
100.267
100.271
100.276
100.28
100.285
100.29
100.295
100.3
100.305
100.31
100.316
100.322
100.328
100.334
100.341
100.348
100.355
100.362
100.37
100.378
100.386
100.395
100.404
100.414
100.424
100.435
100.446
100.457
100.469
100.482
100.495
100.508
100.522
100.536
100.55
100.564
100.579
100.593
100.607
100.621
100.634
100.647
100.659
100.669
100.679
100.688
100.695
100.701
100.705
100.708
100.709
100.709
100.707
100.704
100.7
100.695
100.688
100.681
100.673
100.664
100.655
100.646
100.637
100.628
100.619
100.61
100.602
100.595
100.588
100.582
100.576
100.572
100.568
100.564
100.561
100.559
100.557
100.556
100.554
100.554
100.553
100.552
100.552
100.552
100.551
100.551
100.55
100.55
100.549
100.548
100.547
100.546
100.544
100.542
100.54
100.538
100.535
100.532
100.529
100.525
100.521
100.516
100.511
100.506
100.5
100.494
100.487
100.48
100.473
100.466
100.458
100.45
100.442
100.434
100.426
100.418
100.41
100.403
100.396
100.389
100.383
100.377
100.372
100.368
100.365
100.363
100.361
100.361
100.362
100.364
100.367
100.372
100.378
100.385
100.394
100.404
100.415
100.428
100.442
100.457
100.473
100.489
100.507
100.526
100.545
100.564
100.584
100.604
100.624
100.643
100.662
100.681
100.699
100.716
100.732
100.747
100.761
100.773
100.784
100.793
100.801
100.808
100.813
100.817
100.819
100.82
100.82
100.818
100.816
100.813
100.81
100.805
100.801
100.797
100.792
100.788
100.783
100.78
100.776
100.774
100.772
100.771
100.77
100.29
100.29
100.289
100.287
100.285
100.283
100.28
100.277
100.273
100.269
100.265
100.26
100.254
100.249
100.243
100.237
100.23
100.223
100.217
100.21
100.203
100.196
100.19
100.183
100.177
100.171
100.166
100.16
100.156
100.151
100.147
100.144
100.141
100.139
100.137
100.135
100.134
100.134
100.134
100.134
100.134
100.135
100.137
100.138
100.14
100.143
100.145
100.148
100.151
100.154
100.158
100.162
100.166
100.17
100.175
100.179
100.184
100.189
100.194
100.199
100.204
100.209
100.214
100.219
100.223
100.228
100.233
100.238
100.242
100.247
100.251
100.255
100.26
100.264
100.269
100.273
100.278
100.283
100.288
100.293
100.298
100.303
100.309
100.315
100.321
100.328
100.334
100.341
100.348
100.355
100.363
100.371
100.379
100.388
100.397
100.406
100.416
100.427
100.438
100.449
100.461
100.473
100.486
100.499
100.512
100.526
100.54
100.554
100.568
100.582
100.596
100.61
100.623
100.635
100.647
100.658
100.667
100.676
100.683
100.689
100.694
100.697
100.699
100.7
100.699
100.697
100.694
100.69
100.685
100.679
100.672
100.665
100.657
100.649
100.641
100.633
100.625
100.617
100.61
100.603
100.597
100.591
100.586
100.582
100.578
100.574
100.571
100.569
100.567
100.565
100.564
100.562
100.561
100.56
100.559
100.558
100.557
100.556
100.555
100.554
100.553
100.551
100.55
100.548
100.546
100.544
100.541
100.539
100.536
100.533
100.53
100.526
100.522
100.518
100.513
100.508
100.503
100.497
100.491
100.484
100.477
100.47
100.463
100.456
100.448
100.441
100.433
100.425
100.418
100.411
100.404
100.398
100.392
100.386
100.381
100.377
100.374
100.371
100.37
100.369
100.37
100.372
100.375
100.379
100.384
100.391
100.398
100.407
100.418
100.429
100.442
100.456
100.47
100.486
100.503
100.52
100.538
100.557
100.576
100.595
100.614
100.633
100.652
100.67
100.688
100.705
100.721
100.736
100.75
100.763
100.774
100.784
100.793
100.801
100.806
100.811
100.814
100.816
100.816
100.816
100.814
100.811
100.808
100.804
100.8
100.795
100.791
100.786
100.781
100.777
100.773
100.77
100.767
100.765
100.764
100.764
100.287
100.287
100.286
100.285
100.283
100.28
100.278
100.275
100.271
100.267
100.263
100.258
100.253
100.247
100.242
100.236
100.229
100.223
100.216
100.21
100.203
100.197
100.19
100.184
100.178
100.173
100.168
100.163
100.158
100.154
100.151
100.148
100.145
100.143
100.141
100.14
100.139
100.139
100.138
100.139
100.139
100.14
100.142
100.143
100.145
100.147
100.149
100.152
100.155
100.158
100.161
100.165
100.169
100.173
100.177
100.181
100.185
100.19
100.194
100.199
100.203
100.208
100.213
100.217
100.222
100.226
100.231
100.235
100.239
100.244
100.248
100.252
100.257
100.261
100.266
100.271
100.276
100.281
100.286
100.291
100.297
100.302
100.308
100.315
100.321
100.328
100.334
100.341
100.349
100.356
100.364
100.372
100.381
100.39
100.399
100.409
100.419
100.43
100.441
100.452
100.464
100.477
100.49
100.503
100.516
100.53
100.544
100.558
100.572
100.586
100.599
100.612
100.624
100.636
100.647
100.656
100.665
100.672
100.678
100.683
100.687
100.689
100.69
100.69
100.689
100.686
100.683
100.679
100.674
100.668
100.662
100.656
100.649
100.642
100.636
100.629
100.622
100.616
100.61
100.605
100.6
100.595
100.591
100.588
100.585
100.582
100.58
100.578
100.576
100.575
100.573
100.572
100.57
100.569
100.568
100.566
100.564
100.563
100.561
100.559
100.557
100.554
100.552
100.549
100.547
100.544
100.541
100.538
100.535
100.531
100.527
100.523
100.519
100.515
100.51
100.505
100.499
100.493
100.487
100.481
100.474
100.467
100.46
100.453
100.446
100.439
100.432
100.424
100.418
100.411
100.405
100.399
100.394
100.389
100.385
100.382
100.38
100.378
100.378
100.378
100.379
100.382
100.385
100.39
100.396
100.403
100.411
100.421
100.432
100.443
100.456
100.47
100.485
100.5
100.517
100.534
100.551
100.569
100.587
100.606
100.624
100.643
100.661
100.678
100.695
100.711
100.726
100.741
100.754
100.766
100.777
100.786
100.794
100.801
100.806
100.81
100.813
100.814
100.814
100.813
100.811
100.808
100.805
100.801
100.796
100.792
100.787
100.782
100.778
100.773
100.769
100.766
100.763
100.761
100.76
100.76
100.284
100.284
100.283
100.282
100.28
100.278
100.275
100.272
100.269
100.265
100.26
100.256
100.251
100.246
100.24
100.234
100.228
100.222
100.216
100.209
100.203
100.197
100.191
100.185
100.18
100.175
100.17
100.166
100.162
100.158
100.155
100.152
100.15
100.148
100.146
100.145
100.144
100.144
100.144
100.144
100.145
100.146
100.147
100.148
100.15
100.152
100.154
100.157
100.159
100.162
100.165
100.168
100.172
100.175
100.179
100.183
100.187
100.191
100.195
100.199
100.203
100.207
100.211
100.215
100.22
100.224
100.228
100.232
100.236
100.241
100.245
100.25
100.254
100.259
100.264
100.269
100.274
100.279
100.284
100.29
100.296
100.302
100.308
100.314
100.321
100.328
100.335
100.342
100.35
100.358
100.366
100.374
100.383
100.392
100.401
100.411
100.422
100.433
100.444
100.456
100.468
100.481
100.494
100.507
100.521
100.535
100.549
100.562
100.576
100.589
100.602
100.614
100.626
100.636
100.646
100.654
100.661
100.668
100.672
100.676
100.679
100.68
100.68
100.679
100.677
100.675
100.671
100.667
100.663
100.658
100.652
100.647
100.641
100.635
100.63
100.624
100.619
100.615
100.61
100.606
100.603
100.599
100.597
100.594
100.592
100.59
100.589
100.587
100.586
100.585
100.583
100.582
100.58
100.578
100.577
100.574
100.572
100.57
100.567
100.564
100.561
100.558
100.554
100.551
100.548
100.544
100.54
100.537
100.533
100.528
100.524
100.52
100.515
100.51
100.505
100.5
100.494
100.488
100.482
100.476
100.469
100.463
100.456
100.449
100.442
100.436
100.429
100.423
100.416
100.411
100.405
100.4
100.396
100.392
100.389
100.387
100.385
100.384
100.385
100.386
100.388
100.392
100.396
100.401
100.408
100.416
100.425
100.435
100.445
100.457
100.47
100.484
100.499
100.515
100.531
100.547
100.565
100.582
100.6
100.618
100.636
100.653
100.67
100.687
100.703
100.719
100.733
100.747
100.759
100.771
100.781
100.789
100.797
100.803
100.808
100.811
100.813
100.814
100.814
100.813
100.81
100.808
100.804
100.8
100.795
100.791
100.786
100.781
100.777
100.772
100.769
100.765
100.763
100.761
100.759
100.759
100.281
100.281
100.28
100.278
100.277
100.275
100.272
100.269
100.266
100.262
100.258
100.253
100.248
100.243
100.238
100.232
100.227
100.221
100.215
100.209
100.203
100.198
100.192
100.187
100.182
100.177
100.173
100.169
100.165
100.162
100.159
100.157
100.155
100.153
100.152
100.151
100.15
100.15
100.15
100.15
100.151
100.152
100.153
100.154
100.156
100.157
100.159
100.161
100.164
100.166
100.169
100.171
100.174
100.178
100.181
100.184
100.188
100.191
100.195
100.198
100.202
100.206
100.21
100.213
100.217
100.221
100.225
100.229
100.233
100.238
100.242
100.247
100.251
100.256
100.261
100.266
100.272
100.277
100.283
100.289
100.295
100.302
100.308
100.315
100.322
100.329
100.336
100.344
100.351
100.359
100.368
100.376
100.385
100.395
100.404
100.415
100.425
100.436
100.448
100.46
100.472
100.485
100.498
100.512
100.526
100.539
100.553
100.567
100.58
100.592
100.605
100.616
100.626
100.636
100.644
100.652
100.658
100.662
100.666
100.669
100.67
100.67
100.67
100.668
100.666
100.663
100.659
100.655
100.651
100.646
100.641
100.637
100.632
100.627
100.623
100.619
100.616
100.612
100.609
100.607
100.605
100.603
100.602
100.6
100.599
100.598
100.597
100.596
100.595
100.594
100.593
100.591
100.59
100.587
100.585
100.582
100.579
100.576
100.572
100.569
100.565
100.56
100.556
100.552
100.547
100.543
100.538
100.534
100.529
100.524
100.519
100.514
100.509
100.504
100.498
100.493
100.487
100.481
100.475
100.469
100.462
100.456
100.449
100.443
100.437
100.43
100.424
100.419
100.413
100.408
100.403
100.399
100.396
100.393
100.391
100.39
100.389
100.389
100.391
100.393
100.396
100.4
100.406
100.412
100.419
100.428
100.437
100.448
100.459
100.471
100.485
100.499
100.513
100.529
100.545
100.562
100.578
100.596
100.613
100.63
100.648
100.665
100.681
100.697
100.713
100.727
100.741
100.754
100.766
100.776
100.786
100.794
100.801
100.806
100.811
100.814
100.816
100.816
100.816
100.815
100.812
100.809
100.806
100.802
100.797
100.793
100.788
100.784
100.779
100.775
100.771
100.768
100.766
100.764
100.763
100.762
100.278
100.277
100.276
100.275
100.273
100.271
100.269
100.266
100.262
100.259
100.255
100.25
100.246
100.241
100.236
100.23
100.225
100.22
100.214
100.209
100.203
100.198
100.193
100.189
100.184
100.18
100.176
100.173
100.17
100.167
100.165
100.163
100.161
100.16
100.158
100.158
100.157
100.157
100.157
100.157
100.158
100.158
100.159
100.16
100.161
100.163
100.164
100.166
100.168
100.17
100.172
100.175
100.177
100.18
100.183
100.186
100.188
100.191
100.195
100.198
100.201
100.204
100.208
100.211
100.215
100.218
100.222
100.226
100.23
100.235
100.239
100.244
100.249
100.254
100.259
100.265
100.27
100.276
100.282
100.289
100.295
100.302
100.309
100.316
100.323
100.33
100.338
100.346
100.354
100.362
100.37
100.379
100.388
100.398
100.408
100.418
100.429
100.441
100.452
100.465
100.477
100.49
100.504
100.517
100.531
100.544
100.558
100.571
100.584
100.596
100.607
100.617
100.627
100.635
100.642
100.648
100.653
100.657
100.659
100.661
100.661
100.66
100.658
100.656
100.653
100.65
100.646
100.642
100.638
100.634
100.63
100.626
100.622
100.619
100.616
100.613
100.611
100.609
100.608
100.607
100.606
100.605
100.605
100.605
100.605
100.605
100.605
100.604
100.604
100.603
100.601
100.6
100.598
100.595
100.592
100.589
100.585
100.581
100.576
100.572
100.567
100.561
100.556
100.55
100.545
100.539
100.534
100.528
100.522
100.517
100.511
100.505
100.5
100.494
100.488
100.482
100.476
100.47
100.464
100.458
100.452
100.445
100.439
100.433
100.428
100.422
100.417
100.412
100.407
100.403
100.399
100.396
100.394
100.392
100.391
100.39
100.391
100.392
100.395
100.398
100.402
100.407
100.414
100.421
100.429
100.438
100.448
100.459
100.471
100.484
100.498
100.512
100.527
100.543
100.559
100.575
100.592
100.609
100.626
100.643
100.66
100.676
100.692
100.708
100.723
100.737
100.75
100.762
100.773
100.783
100.792
100.8
100.806
100.812
100.816
100.819
100.82
100.821
100.82
100.819
100.817
100.814
100.811
100.807
100.803
100.799
100.794
100.79
100.786
100.782
100.779
100.776
100.773
100.772
100.77
100.77
100.275
100.274
100.273
100.272
100.27
100.268
100.265
100.262
100.259
100.255
100.251
100.247
100.243
100.238
100.233
100.228
100.223
100.218
100.213
100.208
100.204
100.199
100.195
100.191
100.187
100.183
100.18
100.177
100.175
100.172
100.17
100.169
100.167
100.166
100.165
100.165
100.164
100.164
100.164
100.164
100.165
100.165
100.166
100.167
100.168
100.169
100.17
100.171
100.173
100.174
100.176
100.178
100.18
100.182
100.184
100.187
100.189
100.192
100.194
100.197
100.2
100.203
100.206
100.209
100.212
100.216
100.219
100.223
100.227
100.232
100.236
100.241
100.246
100.252
100.257
100.263
100.269
100.275
100.282
100.289
100.295
100.302
100.31
100.317
100.324
100.332
100.34
100.348
100.356
100.365
100.373
100.383
100.392
100.402
100.412
100.423
100.434
100.446
100.458
100.47
100.483
100.496
100.509
100.523
100.536
100.55
100.563
100.575
100.587
100.599
100.609
100.619
100.627
100.634
100.64
100.645
100.648
100.651
100.652
100.652
100.651
100.649
100.647
100.644
100.64
100.637
100.633
100.628
100.625
100.621
100.617
100.614
100.611
100.609
100.607
100.606
100.605
100.604
100.604
100.604
100.605
100.606
100.607
100.608
100.609
100.609
100.61
100.61
100.61
100.609
100.608
100.606
100.604
100.601
100.597
100.593
100.589
100.584
100.578
100.572
100.566
100.56
100.553
100.547
100.54
100.533
100.526
100.52
100.513
100.506
100.5
100.493
100.487
100.48
100.474
100.468
100.461
100.455
100.449
100.443
100.437
100.431
100.425
100.42
100.415
100.41
100.405
100.401
100.397
100.394
100.391
100.389
100.388
100.387
100.387
100.388
100.39
100.392
100.396
100.4
100.406
100.412
100.419
100.427
100.436
100.446
100.457
100.469
100.482
100.495
100.509
100.524
100.539
100.555
100.571
100.588
100.604
100.621
100.638
100.655
100.671
100.687
100.703
100.718
100.732
100.746
100.759
100.771
100.781
100.791
100.8
100.807
100.813
100.818
100.822
100.825
100.827
100.828
100.828
100.827
100.825
100.822
100.819
100.816
100.812
100.808
100.805
100.801
100.797
100.794
100.791
100.788
100.786
100.784
100.783
100.783
100.271
100.27
100.269
100.268
100.266
100.264
100.261
100.258
100.255
100.251
100.248
100.244
100.239
100.235
100.23
100.226
100.221
100.217
100.212
100.208
100.204
100.2
100.196
100.193
100.19
100.187
100.184
100.182
100.18
100.178
100.177
100.176
100.174
100.174
100.173
100.172
100.172
100.172
100.172
100.172
100.172
100.172
100.173
100.173
100.174
100.175
100.176
100.177
100.178
100.179
100.18
100.181
100.183
100.184
100.186
100.188
100.19
100.192
100.194
100.196
100.198
100.201
100.203
100.206
100.209
100.213
100.216
100.22
100.224
100.229
100.234
100.239
100.244
100.25
100.256
100.262
100.268
100.275
100.282
100.289
100.296
100.303
100.311
100.319
100.326
100.334
100.343
100.351
100.359
100.368
100.377
100.387
100.396
100.407
100.417
100.428
100.439
100.451
100.464
100.476
100.489
100.502
100.516
100.529
100.542
100.555
100.568
100.58
100.591
100.602
100.611
100.619
100.627
100.632
100.637
100.641
100.643
100.644
100.644
100.643
100.641
100.638
100.635
100.631
100.627
100.623
100.618
100.614
100.61
100.607
100.604
100.601
100.599
100.598
100.597
100.597
100.597
100.598
100.599
100.6
100.602
100.604
100.606
100.608
100.61
100.612
100.613
100.614
100.614
100.613
100.612
100.61
100.608
100.604
100.6
100.596
100.59
100.584
100.578
100.571
100.564
100.556
100.549
100.541
100.533
100.524
100.516
100.508
100.501
100.493
100.485
100.478
100.47
100.463
100.456
100.45
100.443
100.436
100.43
100.424
100.418
100.413
100.408
100.403
100.398
100.394
100.39
100.387
100.384
100.382
100.38
100.379
100.379
100.379
100.38
100.382
100.385
100.389
100.393
100.399
100.405
100.413
100.421
100.43
100.44
100.451
100.463
100.476
100.489
100.503
100.518
100.533
100.548
100.565
100.581
100.598
100.614
100.631
100.648
100.665
100.681
100.697
100.712
100.727
100.741
100.754
100.767
100.779
100.789
100.799
100.807
100.815
100.821
100.826
100.83
100.833
100.835
100.837
100.837
100.836
100.835
100.833
100.831
100.828
100.825
100.822
100.819
100.816
100.813
100.81
100.807
100.805
100.803
100.802
100.801
100.801
100.267
100.266
100.265
100.264
100.262
100.26
100.257
100.254
100.251
100.247
100.244
100.24
100.236
100.232
100.227
100.223
100.219
100.215
100.212
100.208
100.205
100.201
100.199
100.196
100.193
100.191
100.189
100.187
100.186
100.185
100.184
100.183
100.182
100.181
100.181
100.18
100.18
100.18
100.18
100.18
100.18
100.18
100.18
100.18
100.18
100.181
100.181
100.182
100.182
100.183
100.184
100.185
100.186
100.187
100.188
100.189
100.19
100.192
100.193
100.195
100.197
100.199
100.201
100.204
100.207
100.21
100.214
100.218
100.222
100.226
100.231
100.237
100.242
100.248
100.255
100.261
100.268
100.275
100.282
100.29
100.297
100.305
100.313
100.321
100.329
100.337