# vtk DataFile Version 2.0
HPC Tutorials: Michael Bader, Kaveh Rahnema, Oliver Meister
ASCII
DATASET RECTILINEAR_GRID
DIMENSIONS 257 257 1
X_COORDINATES 257 float
0
0.005
0.01
0.015
0.02
0.025
0.03
0.035
0.04
0.045
0.05
0.055
0.06
0.065
0.07
0.075
0.08
0.085
0.09
0.095
0.1
0.105
0.11
0.115
0.12
0.125
0.13
0.135
0.14
0.145
0.15
0.155
0.16
0.165
0.17
0.175
0.18
0.185
0.19
0.195
0.2
0.205
0.21
0.215
0.22
0.225
0.23
0.235
0.24
0.245
0.25
0.255
0.26
0.265
0.27
0.275
0.28
0.285
0.29
0.295
0.3
0.305
0.31
0.315
0.32
0.325
0.33
0.335
0.34
0.345
0.35
0.355
0.36
0.365
0.37
0.375
0.38
0.385
0.39
0.395
0.4
0.405
0.41
0.415
0.42
0.425
0.43
0.435
0.44
0.445
0.45
0.455
0.46
0.465
0.47
0.475
0.48
0.485
0.49
0.495
0.5
0.505
0.51
0.515
0.52
0.525
0.53
0.535
0.54
0.545
0.55
0.555
0.56
0.565
0.57
0.575
0.58
0.585
0.59
0.595
0.6
0.605
0.61
0.615
0.62
0.625
0.63
0.635
0.64
0.645
0.65
0.655
0.66
0.665
0.67
0.675
0.68
0.685
0.69
0.695
0.7
0.705
0.71
0.715
0.72
0.725
0.73
0.735
0.74
0.745
0.75
0.755
0.76
0.765
0.77
0.775
0.78
0.785
0.79
0.795
0.8
0.805
0.81
0.815
0.82
0.825
0.83
0.835
0.84
0.845
0.85
0.855
0.86
0.865
0.87
0.875
0.88
0.885
0.89
0.895
0.9
0.905
0.91
0.915
0.92
0.925
0.93
0.935
0.94
0.945
0.95
0.955
0.96
0.965
0.97
0.975
0.98
0.985
0.99
0.995
1
1.005
1.01
1.015
1.02
1.025
1.03
1.035
1.04
1.045
1.05
1.055
1.06
1.065
1.07
1.075
1.08
1.085
1.09
1.095
1.1
1.105
1.11
1.115
1.12
1.125
1.13
1.135
1.14
1.145
1.15
1.155
1.16
1.165
1.17
1.175
1.18
1.185
1.19
1.195
1.2
1.205
1.21
1.215
1.22
1.225
1.23
1.235
1.24
1.245
1.25
1.255
1.26
1.265
1.27
1.275
1.28
Y_COORDINATES 257 float
0
0.005
0.01
0.015
0.02
0.025
0.03
0.035
0.04
0.045
0.05
0.055
0.06
0.065
0.07
0.075
0.08
0.085
0.09
0.095
0.1
0.105
0.11
0.115
0.12
0.125
0.13
0.135
0.14
0.145
0.15
0.155
0.16
0.165
0.17
0.175
0.18
0.185
0.19
0.195
0.2
0.205
0.21
0.215
0.22
0.225
0.23
0.235
0.24
0.245
0.25
0.255
0.26
0.265
0.27
0.275
0.28
0.285
0.29
0.295
0.3
0.305
0.31
0.315
0.32
0.325
0.33
0.335
0.34
0.345
0.35
0.355
0.36
0.365
0.37
0.375
0.38
0.385
0.39
0.395
0.4
0.405
0.41
0.415
0.42
0.425
0.43
0.435
0.44
0.445
0.45
0.455
0.46
0.465
0.47
0.475
0.48
0.485
0.49
0.495
0.5
0.505
0.51
0.515
0.52
0.525
0.53
0.535
0.54
0.545
0.55
0.555
0.56
0.565
0.57
0.575
0.58
0.585
0.59
0.595
0.6
0.605
0.61
0.615
0.62
0.625
0.63
0.635
0.64
0.645
0.65
0.655
0.66
0.665
0.67
0.675
0.68
0.685
0.69
0.695
0.7
0.705
0.71
0.715
0.72
0.725
0.73
0.735
0.74
0.745
0.75
0.755
0.76
0.765
0.77
0.775
0.78
0.785
0.79
0.795
0.8
0.805
0.81
0.815
0.82
0.825
0.83
0.835
0.84
0.845
0.85
0.855
0.86
0.865
0.87
0.875
0.88
0.885
0.89
0.895
0.9
0.905
0.91
0.915
0.92
0.925
0.93
0.935
0.94
0.945
0.95
0.955
0.96
0.965
0.97
0.975
0.98
0.985
0.99
0.995
1
1.005
1.01
1.015
1.02
1.025
1.03
1.035
1.04
1.045
1.05
1.055
1.06
1.065
1.07
1.075
1.08
1.085
1.09
1.095
1.1
1.105
1.11
1.115
1.12
1.125
1.13
1.135
1.14
1.145
1.15
1.155
1.16
1.165
1.17
1.175
1.18
1.185
1.19
1.195
1.2
1.205
1.21
1.215
1.22
1.225
1.23
1.235
1.24
1.245
1.25
1.255
1.26
1.265
1.27
1.275
1.28
Z_COORDINATES 1 float
0
CELL_DATA 65536
SCALARS H float 1
LOOKUP_TABLE default
102.523
102.514
102.497
102.471
102.438
102.396
102.347
102.292
102.231
102.167
102.099
102.029
101.958
101.887
101.817
101.748
101.682
101.617
101.556
101.497
101.442
101.39
101.343
101.3
101.261
101.227
101.198
101.175
101.158
101.146
101.14
101.14
101.146
101.158
101.174
101.195
101.221
101.249
101.279
101.312
101.344
101.377
101.408
101.438
101.467
101.492
101.516
101.537
101.555
101.572
101.586
101.598
101.609
101.618
101.625
101.631
101.637
101.641
101.644
101.646
101.647
101.647
101.646
101.644
101.641
101.638
101.633
101.628
101.622
101.615
101.607
101.599
101.59
101.581
101.571
101.56
101.549
101.538
101.527
101.515
101.503
101.491
101.479
101.467
101.454
101.442
101.43
101.417
101.405
101.393
101.38
101.368
101.356
101.344
101.332
101.32
101.308
101.297
101.286
101.275
101.265
101.255
101.245
101.236
101.228
101.22
101.213
101.207
101.201
101.196
101.191
101.188
101.184
101.182
101.18
101.178
101.177
101.177
101.176
101.176
101.176
101.177
101.177
101.177
101.178
101.178
101.178
101.178
101.178
101.178
101.178
101.178
101.178
101.177
101.177
101.176
101.176
101.175
101.174
101.174
101.174
101.173
101.173
101.174
101.174
101.174
101.175
101.176
101.177
101.179
101.18
101.182
101.184
101.187
101.189
101.191
101.194
101.197
101.199
101.202
101.204
101.206
101.208
101.209
101.21
101.21
101.209
101.208
101.206
101.204
101.2
101.196
101.19
101.184
101.177
101.169
101.161
101.151
101.141
101.13
101.119
101.108
101.095
101.083
101.071
101.058
101.046
101.034
101.022
101.01
100.999
100.988
100.978
100.968
100.958
100.95
100.942
100.934
100.927
100.921
100.915
100.909
100.904
100.9
100.895
100.891
100.887
100.884
100.88
100.877
100.873
100.87
100.867
100.864
100.86
100.857
100.854
100.85
100.847
100.843
100.84
100.836
100.832
100.829
100.825
100.821
100.817
100.813
100.809
100.805
100.801
100.797
100.793
100.789
100.785
100.781
100.777
100.773
100.769
100.766
100.762
100.758
100.755
100.752
100.749
100.746
100.743
100.741
100.739
100.737
100.735
100.733
100.732
100.732
100.731
100.731
102.515
102.505
102.488
102.462
102.428
102.387
102.338
102.284
102.225
102.161
102.094
102.026
101.957
101.887
101.818
101.75
101.685
101.621
101.56
101.502
101.447
101.396
101.349
101.307
101.269
101.235
101.207
101.184
101.167
101.156
101.15
101.15
101.155
101.166
101.182
101.202
101.226
101.253
101.283
101.313
101.344
101.376
101.406
101.435
101.463
101.488
101.511
101.532
101.551
101.568
101.582
101.595
101.606
101.615
101.623
101.629
101.635
101.639
101.642
101.644
101.646
101.646
101.645
101.643
101.641
101.637
101.633
101.628
101.622
101.615
101.607
101.599
101.59
101.581
101.571
101.561
101.55
101.539
101.527
101.516
101.504
101.492
101.48
101.467
101.455
101.443
101.43
101.418
101.405
101.393
101.381
101.368
101.356
101.344
101.332
101.32
101.308
101.297
101.286
101.275
101.265
101.255
101.245
101.236
101.228
101.22
101.213
101.207
101.201
101.196
101.192
101.188
101.185
101.182
101.18
101.179
101.178
101.177
101.177
101.176
101.177
101.177
101.177
101.177
101.178
101.178
101.178
101.179
101.179
101.179
101.179
101.178
101.178
101.178
101.177
101.177
101.176
101.176
101.175
101.175
101.174
101.174
101.174
101.174
101.175
101.175
101.176
101.177
101.178
101.179
101.181
101.183
101.185
101.187
101.189
101.192
101.194
101.197
101.199
101.201
101.203
101.205
101.207
101.208
101.209
101.209
101.208
101.207
101.205
101.202
101.199
101.194
101.189
101.183
101.175
101.168
101.159
101.149
101.139
101.129
101.117
101.106
101.094
101.082
101.069
101.057
101.045
101.032
101.021
101.009
100.998
100.987
100.977
100.967
100.958
100.949
100.942
100.934
100.927
100.921
100.915
100.91
100.905
100.9
100.896
100.892
100.888
100.885
100.881
100.878
100.875
100.872
100.868
100.865
100.862
100.859
100.855
100.852
100.849
100.845
100.842
100.838
100.834
100.83
100.827
100.823
100.819
100.815
100.811
100.807
100.803
100.799
100.795
100.791
100.787
100.783
100.779
100.775
100.771
100.768
100.764
100.76
100.757
100.754
100.751
100.748
100.745
100.743
100.74
100.739
100.737
100.735
100.734
100.733
100.733
100.733
102.499
102.489
102.471
102.445
102.412
102.371
102.324
102.272
102.214
102.153
102.089
102.022
101.955
101.888
101.82
101.754
101.69
101.627
101.567
101.51
101.457
101.407
101.36
101.318
101.281
101.249
101.221
101.199
101.182
101.171
101.165
101.165
101.17
101.18
101.195
101.213
101.235
101.26
101.287
101.315
101.344
101.374
101.402
101.43
101.456
101.481
101.504
101.525
101.544
101.561
101.576
101.589
101.601
101.611
101.619
101.626
101.632
101.637
101.64
101.643
101.644
101.644
101.644
101.642
101.64
101.637
101.632
101.627
101.621
101.615
101.607
101.599
101.591
101.581
101.572
101.561
101.551
101.54
101.528
101.517
101.505
101.493
101.48
101.468
101.456
101.443
101.431
101.418
101.406
101.393
101.381
101.369
101.356
101.344
101.332
101.32
101.309
101.297
101.286
101.275
101.265
101.255
101.246
101.237
101.228
101.221
101.213
101.207
101.201
101.196
101.192
101.188
101.185
101.182
101.181
101.179
101.178
101.177
101.177
101.177
101.177
101.177
101.177
101.178
101.178
101.179
101.179
101.179
101.179
101.179
101.179
101.179
101.179
101.178
101.178
101.178
101.177
101.177
101.176
101.176
101.176
101.176
101.175
101.176
101.176
101.176
101.177
101.178
101.179
101.18
101.182
101.183
101.185
101.187
101.189
101.192
101.194
101.196
101.199
101.201
101.203
101.204
101.206
101.207
101.207
101.207
101.206
101.205
101.203
101.2
101.196
101.191
101.186
101.18
101.172
101.165
101.156
101.146
101.136
101.126
101.115
101.103
101.091
101.079
101.067
101.055
101.043
101.031
101.019
101.008
100.997
100.986
100.976
100.967
100.958
100.949
100.941
100.934
100.928
100.921
100.916
100.911
100.906
100.901
100.897
100.893
100.89
100.886
100.883
100.88
100.877
100.874
100.871
100.868
100.864
100.861
100.858
100.855
100.851
100.848
100.844
100.841
100.837
100.833
100.83
100.826
100.822
100.818
100.814
100.81
100.806
100.802
100.798
100.794
100.79
100.786
100.782
100.778
100.774
100.77
100.767
100.763
100.76
100.757
100.754
100.751
100.748
100.746
100.743
100.741
100.74
100.738
100.737
100.736
100.736
100.736
102.477
102.466
102.448
102.422
102.389
102.35
102.305
102.255
102.2
102.142
102.08
102.017
101.953
101.888
101.823
101.759
101.697
101.636
101.578
101.522
101.47
101.421
101.376
101.335
101.299
101.268
101.241
101.22
101.204
101.193
101.187
101.187
101.191
101.199
101.212
101.228
101.247
101.269
101.293
101.318
101.345
101.371
101.397
101.423
101.448
101.472
101.495
101.516
101.535
101.552
101.568
101.582
101.594
101.605
101.614
101.621
101.628
101.633
101.637
101.64
101.641
101.642
101.642
101.641
101.639
101.635
101.632
101.627
101.621
101.615
101.608
101.6
101.591
101.582
101.573
101.562
101.552
101.541
101.529
101.518
101.506
101.494
101.482
101.469
101.457
101.444
101.432
101.419
101.407
101.394
101.382
101.369
101.357
101.345
101.333
101.321
101.309
101.298
101.286
101.276
101.265
101.255
101.246
101.237
101.229
101.221
101.214
101.207
101.202
101.197
101.192
101.189
101.185
101.183
101.181
101.18
101.178
101.178
101.177
101.177
101.177
101.178
101.178
101.178
101.179
101.179
101.18
101.18
101.18
101.18
101.18
101.18
101.18
101.18
101.179
101.179
101.179
101.178
101.178
101.178
101.177
101.177
101.177
101.177
101.178
101.178
101.179
101.179
101.18
101.182
101.183
101.184
101.186
101.188
101.19
101.192
101.194
101.196
101.198
101.2
101.202
101.203
101.204
101.205
101.205
101.204
101.203
101.202
101.199
101.196
101.192
101.187
101.182
101.175
101.168
101.16
101.152
101.142
101.132
101.122
101.111
101.099
101.088
101.076
101.064
101.052
101.04
101.028
101.017
101.006
100.995
100.985
100.975
100.966
100.957
100.949
100.941
100.934
100.928
100.922
100.917
100.912
100.907
100.903
100.899
100.895
100.892
100.889
100.886
100.883
100.88
100.877
100.874
100.871
100.868
100.865
100.862
100.858
100.855
100.852
100.848
100.845
100.841
100.837
100.833
100.83
100.826
100.822
100.818
100.814
100.81
100.806
100.802
100.798
100.794
100.79
100.786
100.782
100.778
100.774
100.77
100.767
100.763
100.76
100.757
100.754
100.752
100.749
100.747
100.745
100.743
100.742
100.741
100.74
100.739
100.739
102.446
102.436
102.418
102.393
102.361
102.323
102.281
102.233
102.182
102.127
102.07
102.01
101.95
101.888
101.826
101.765
101.705
101.647
101.591
101.537
101.487
101.44
101.396
101.357
101.323
101.293
101.267
101.247
101.231
101.221
101.215
101.213
101.216
101.223
101.233
101.247
101.263
101.281
101.301
101.323
101.345
101.368
101.392
101.416
101.439
101.461
101.483
101.504
101.523
101.541
101.557
101.572
101.585
101.597
101.607
101.615
101.622
101.628
101.632
101.636
101.638
101.639
101.639
101.639
101.637
101.634
101.631
101.626
101.621
101.615
101.608
101.6
101.592
101.583
101.574
101.564
101.553
101.542
101.531
101.519
101.508
101.496
101.483
101.471
101.458
101.446
101.433
101.421
101.408
101.395
101.383
101.37
101.358
101.346
101.333
101.321
101.31
101.298
101.287
101.276
101.266
101.256
101.246
101.237
101.229
101.221
101.214
101.208
101.202
101.197
101.193
101.189
101.186
101.184
101.182
101.18
101.179
101.178
101.178
101.178
101.178
101.178
101.179
101.179
101.18
101.18
101.181
101.181
101.181
101.181
101.181
101.181
101.181
101.181
101.181
101.181
101.181
101.18
101.18
101.18
101.18
101.179
101.179
101.179
101.18
101.18
101.181
101.181
101.182
101.183
101.184
101.186
101.187
101.189
101.19
101.192
101.194
101.196
101.197
101.199
101.2
101.201
101.202
101.202
101.202
101.201
101.2
101.198
101.195
101.192
101.187
101.182
101.177
101.17
101.163
101.155
101.146
101.137
101.127
101.117
101.106
101.095
101.083
101.071
101.06
101.048
101.037
101.025
101.014
101.003
100.993
100.983
100.974
100.965
100.956
100.949
100.941
100.935
100.929
100.923
100.918
100.913
100.909
100.905
100.901
100.898
100.895
100.892
100.889
100.886
100.883
100.88
100.877
100.875
100.872
100.869
100.866
100.862
100.859
100.856
100.852
100.849
100.845
100.842
100.838
100.834
100.83
100.826
100.822
100.818
100.814
100.81
100.806
100.802
100.798
100.794
100.79
100.786
100.782
100.778
100.775
100.771
100.768
100.764
100.761
100.758
100.756
100.753
100.751
100.749
100.747
100.746
100.745
100.744
100.744
100.743
102.409
102.399
102.382
102.357
102.327
102.292
102.252
102.208
102.161
102.11
102.057
102.002
101.945
101.888
101.83
101.772
101.715
101.66
101.606
101.555
101.507
101.462
101.421
101.384
101.351
101.323
101.299
101.279
101.265
101.254
101.248
101.245
101.246
101.251
101.258
101.268
101.28
101.295
101.311
101.328
101.347
101.366
101.387
101.408
101.429
101.45
101.47
101.49
101.51
101.528
101.545
101.56
101.574
101.587
101.597
101.607
101.615
101.622
101.627
101.631
101.634
101.636
101.636
101.636
101.635
101.632
101.629
101.625
101.62
101.615
101.608
101.601
101.593
101.584
101.575
101.565
101.555
101.544
101.533
101.521
101.51
101.498
101.485
101.473
101.46
101.448
101.435
101.422
101.41
101.397
101.384
101.371
101.359
101.346
101.334
101.322
101.31
101.299
101.287
101.277
101.266
101.256
101.247
101.238
101.23
101.222
101.215
101.209
101.203
101.198
101.194
101.19
101.187
101.184
101.182
101.181
101.18
101.179
101.179
101.179
101.179
101.179
101.18
101.18
101.181
101.181
101.182
101.182
101.183
101.183
101.183
101.183
101.183
101.183
101.183
101.183
101.183
101.183
101.182
101.182
101.182
101.182
101.182
101.182
101.182
101.183
101.183
101.184
101.184
101.185
101.186
101.187
101.188
101.19
101.191
101.192
101.194
101.195
101.196
101.197
101.198
101.199
101.199
101.199
101.198
101.197
101.195
101.193
101.19
101.186
101.182
101.177
101.171
101.164
101.157
101.149
101.14
101.131
101.121
101.111
101.1
101.089
101.078
101.067
101.055
101.044
101.033
101.022
101.011
101.001
100.991
100.981
100.972
100.964
100.956
100.948
100.942
100.935
100.93
100.924
100.919
100.915
100.911
100.907
100.904
100.901
100.898
100.895
100.892
100.889
100.887
100.884
100.881
100.879
100.876
100.873
100.87
100.867
100.864
100.86
100.857
100.854
100.85
100.846
100.842
100.839
100.835
100.831
100.827
100.823
100.819
100.814
100.81
100.806
100.802
100.798
100.794
100.79
100.786
100.782
100.779
100.775
100.772
100.769
100.766
100.763
100.76
100.758
100.755
100.753
100.752
100.75
100.749
100.748
100.748
100.748
102.366
102.356
102.339
102.317
102.289
102.257
102.22
102.18
102.136
102.09
102.042
101.991
101.939
101.886
101.833
101.779
101.726
101.674
101.624
101.576
101.531
101.489
101.45
101.415
101.384
101.358
101.335
101.317
101.303
101.292
101.285
101.281
101.28
101.282
101.286
101.293
101.301
101.311
101.322
101.335
101.35
101.365
101.382
101.4
101.419
101.438
101.457
101.476
101.495
101.513
101.53
101.546
101.561
101.575
101.586
101.597
101.606
101.614
101.62
101.625
101.628
101.631
101.632
101.633
101.632
101.63
101.628
101.624
101.62
101.614
101.608
101.601
101.594
101.585
101.576
101.567
101.557
101.546
101.535
101.524
101.512
101.5
101.488
101.475
101.462
101.45
101.437
101.424
101.411
101.398
101.385
101.373
101.36
101.347
101.335
101.323
101.311
101.299
101.288
101.277
101.267
101.257
101.247
101.239
101.23
101.223
101.216
101.209
101.204
101.199
101.195
101.191
101.188
101.185
101.183
101.182
101.181
101.18
101.18
101.18
101.18
101.18
101.181
101.181
101.182
101.183
101.183
101.184
101.184
101.185
101.185
101.185
101.185
101.185
101.185
101.185
101.185
101.185
101.185
101.185
101.185
101.185
101.185
101.185
101.185
101.185
101.186
101.186
101.186
101.187
101.188
101.189
101.189
101.19
101.191
101.192
101.193
101.194
101.195
101.195
101.196
101.196
101.195
101.195
101.194
101.192
101.19
101.187
101.184
101.18
101.175
101.17
101.164
101.157
101.15
101.142
101.133
101.124
101.114
101.104
101.094
101.083
101.072
101.061
101.05
101.04
101.029
101.018
101.008
100.998
100.989
100.979
100.971
100.963
100.955
100.948
100.942
100.936
100.93
100.925
100.921
100.917
100.913
100.91
100.906
100.903
100.901
100.898
100.895
100.893
100.89
100.888
100.885
100.883
100.88
100.877
100.874
100.871
100.868
100.865
100.861
100.858
100.854
100.851
100.847
100.843
100.839
100.835
100.831
100.827
100.823
100.819
100.814
100.81
100.806
100.802
100.798
100.794
100.79
100.786
100.783
100.779
100.776
100.773
100.77
100.767
100.764
100.762
100.759
100.757
100.756
100.754
100.753
100.752
100.752
100.752
102.317
102.307
102.292
102.272
102.247
102.218
102.185
102.148
102.109
102.068
102.024
101.979
101.932
101.884
101.835
101.786
101.737
101.69
101.643
101.599
101.557
101.518
101.483
101.451
101.422
101.397
101.376
101.359
101.345
101.334
101.326
101.321
101.317
101.316
101.317
101.319
101.323
101.329
101.336
101.344
101.354
101.366
101.379
101.394
101.409
101.426
101.444
101.461
101.479
101.497
101.514
101.531
101.546
101.561
101.574
101.585
101.595
101.604
101.611
101.617
101.622
101.625
101.627
101.629
101.629
101.627
101.625
101.622
101.619
101.614
101.608
101.602
101.595
101.587
101.578
101.569
101.559
101.548
101.537
101.526
101.514
101.502
101.49
101.478
101.465
101.452
101.439
101.426
101.413
101.4
101.387
101.374
101.361
101.349
101.336
101.324
101.312
101.3
101.289
101.278
101.267
101.258
101.248
101.239
101.231
101.224
101.217
101.21
101.205
101.2
101.196
101.192
101.189
101.187
101.185
101.183
101.182
101.182
101.181
101.181
101.181
101.182
101.182
101.183
101.184
101.184
101.185
101.185
101.186
101.187
101.187
101.187
101.188
101.188
101.188
101.188
101.188
101.188
101.188
101.188
101.188
101.188
101.188
101.188
101.188
101.188
101.188
101.188
101.189
101.189
101.189
101.19
101.19
101.191
101.191
101.192
101.192
101.193
101.193
101.193
101.193
101.192
101.191
101.19
101.189
101.186
101.184
101.181
101.177
101.173
101.168
101.162
101.156
101.149
101.142
101.134
101.126
101.117
101.107
101.097
101.087
101.077
101.066
101.056
101.045
101.035
101.025
101.015
101.005
100.995
100.986
100.978
100.97
100.962
100.955
100.948
100.942
100.937
100.931
100.927
100.923
100.919
100.915
100.912
100.909
100.906
100.904
100.901
100.899
100.896
100.894
100.892
100.889
100.887
100.884
100.881
100.878
100.875
100.872
100.869
100.866
100.862
100.858
100.855
100.851
100.847
100.843
100.839
100.835
100.831
100.826
100.822
100.818
100.814
100.81
100.806
100.802
100.798
100.794
100.79
100.786
100.783
100.779
100.776
100.773
100.77
100.768
100.765
100.763
100.761
100.759
100.758
100.757
100.756
100.756
100.755
102.262
102.253
102.241
102.223
102.201
102.176
102.147
102.115
102.08
102.044
102.005
101.965
101.923
101.88
101.837
101.793
101.749
101.706
101.664
101.624
101.586
101.551
101.519
101.49
101.464
101.441
101.421
101.405
101.391
101.379
101.37
101.363
101.357
101.353
101.35
101.348
101.348
101.349
101.351
101.355
101.361
101.369
101.378
101.389
101.402
101.416
101.431
101.447
101.464
101.481
101.498
101.514
101.53
101.545
101.559
101.571
101.583
101.593
101.601
101.608
101.614
101.618
101.621
101.623
101.624
101.624
101.623
101.621
101.617
101.613
101.608
101.602
101.595
101.588
101.58
101.571
101.561
101.551
101.54
101.529
101.517
101.505
101.493
101.48
101.468
101.455
101.442
101.428
101.415
101.402
101.389
101.376
101.363
101.35
101.337
101.325
101.313
101.301
101.29
101.279
101.268
101.258
101.249
101.24
101.232
101.225
101.218
101.212
101.206
101.201
101.197
101.193
101.19
101.188
101.186
101.185
101.184
101.183
101.183
101.183
101.183
101.183
101.184
101.185
101.185
101.186
101.187
101.187
101.188
101.189
101.189
101.19
101.19
101.191
101.191
101.191
101.191
101.191
101.191
101.191
101.191
101.191
101.191
101.191
101.191
101.191
101.191
101.191
101.191
101.191
101.191
101.191
101.191
101.191
101.191
101.191
101.191
101.191
101.191
101.19
101.189
101.188
101.187
101.185
101.183
101.18
101.177
101.174
101.17
101.165
101.16
101.155
101.148
101.141
101.134
101.126
101.118
101.109
101.1
101.09
101.08
101.07
101.06
101.05
101.04
101.03
101.02
101.011
101.001
100.993
100.984
100.976
100.968
100.961
100.954
100.948
100.942
100.937
100.932
100.928
100.924
100.92
100.917
100.914
100.911
100.909
100.906
100.904
100.902
100.9
100.897
100.895
100.893
100.89
100.887
100.885
100.882
100.879
100.876
100.872
100.869
100.865
100.862
100.858
100.854
100.85
100.846
100.842
100.838
100.834
100.829
100.825
100.821
100.817
100.812
100.808
100.804
100.8
100.796
100.793
100.789
100.785
100.782
100.779
100.776
100.773
100.77
100.768
100.766
100.764
100.762
100.761
100.76
100.759
100.758
100.758
102.203
102.196
102.186
102.171
102.152
102.131
102.106
102.079
102.049
102.017
101.984
101.949
101.913
101.875
101.837
101.799
101.761
101.723
101.686
101.651
101.618
101.587
101.558
101.532
101.508
101.488
101.469
101.453
101.439
101.427
101.416
101.407
101.398
101.391
101.384
101.379
101.374
101.371
101.369
101.369
101.37
101.374
101.379
101.387
101.396
101.407
101.42
101.434
101.449
101.465
101.481
101.497
101.513
101.528
101.543
101.556
101.568
101.579
101.589
101.597
101.604
101.61
101.614
101.617
101.619
101.62
101.62
101.618
101.616
101.612
101.608
101.602
101.596
101.589
101.581
101.573
101.563
101.553
101.543
101.532
101.52
101.508
101.496
101.483
101.47
101.457
101.444
101.431
101.417
101.404
101.391
101.377
101.364
101.351
101.338
101.326
101.314
101.302
101.291
101.28
101.269
101.259
101.25
101.241
101.233
101.226
101.219
101.213
101.207
101.203
101.198
101.195
101.192
101.19
101.188
101.186
101.185
101.185
101.184
101.184
101.185
101.185
101.186
101.186
101.187
101.188
101.189
101.19
101.19
101.191
101.192
101.193
101.193
101.194
101.194
101.194
101.195
101.195
101.195
101.195
101.195
101.195
101.194
101.194
101.194
101.194
101.194
101.193
101.193
101.193
101.192
101.192
101.192
101.191
101.191
101.19
101.19
101.189
101.188
101.187
101.185
101.184
101.182
101.18
101.177
101.174
101.171
101.167
101.162
101.158
101.152
101.146
101.14
101.133
101.126
101.118
101.11
101.101
101.092
101.083
101.073
101.064
101.054
101.045
101.035
101.025
101.016
101.007
100.998
100.99
100.982
100.974
100.967
100.96
100.954
100.948
100.943
100.938
100.933
100.929
100.925
100.922
100.919
100.916
100.914
100.911
100.909
100.907
100.904
100.902
100.9
100.898
100.895
100.893
100.89
100.887
100.884
100.881
100.878
100.875
100.871
100.868
100.864
100.86
100.856
100.852
100.848
100.844
100.84
100.835
100.831
100.827
100.823
100.818
100.814
100.81
100.806
100.802
100.798
100.794
100.791
100.787
100.784
100.781
100.778
100.775
100.772
100.77
100.768
100.766
100.764
100.763
100.762
100.761
100.76
100.76
102.142
102.136
102.128
102.116
102.101
102.084
102.064
102.041
102.016
101.99
101.961
101.932
101.901
101.869
101.837
101.804
101.772
101.74
101.709
101.679
101.65
101.624
101.599
101.576
101.555
101.537
101.52
101.504
101.49
101.477
101.464
101.452
101.441
101.43
101.42
101.411
101.402
101.395
101.389
101.385
101.382
101.381
101.383
101.387
101.392
101.4
101.41
101.422
101.435
101.449
101.464
101.479
101.495
101.51
101.525
101.539
101.552
101.565
101.576
101.585
101.593
101.6
101.606
101.61
101.613
101.615
101.615
101.615
101.613
101.611
101.607
101.602
101.597
101.59
101.583
101.574
101.566
101.556
101.546
101.535
101.523
101.511
101.499
101.486
101.474
101.46
101.447
101.433
101.42
101.406
101.393
101.379
101.366
101.353
101.34
101.327
101.315
101.303
101.292
101.281
101.27
101.26
101.251
101.243
101.235
101.227
101.22
101.214
101.209
101.204
101.2
101.197
101.194
101.191
101.189
101.188
101.187
101.187
101.186
101.186
101.187
101.187
101.188
101.188
101.189
101.19
101.191
101.192
101.193
101.194
101.195
101.195
101.196
101.197
101.197
101.198
101.198
101.198
101.198
101.198
101.198
101.198
101.198
101.197
101.197
101.197
101.196
101.195
101.195
101.194
101.193
101.193
101.192
101.191
101.19
101.189
101.188
101.186
101.185
101.183
101.181
101.179
101.176
101.174
101.171
101.167
101.163
101.159
101.155
101.149
101.144
101.138
101.131
101.125
101.117
101.11
101.102
101.093
101.085
101.076
101.067
101.057
101.048
101.039
101.03
101.021
101.012
101.003
100.995
100.987
100.979
100.972
100.965
100.959
100.953
100.948
100.943
100.938
100.934
100.93
100.926
100.923
100.92
100.918
100.915
100.913
100.91
100.908
100.906
100.904
100.902
100.899
100.897
100.894
100.892
100.889
100.886
100.883
100.88
100.876
100.873
100.869
100.865
100.861
100.857
100.853
100.849
100.845
100.84
100.836
100.832
100.827
100.823
100.819
100.815
100.811
100.806
100.802
100.799
100.795
100.791
100.788
100.784
100.781
100.778
100.775
100.773
100.771
100.769
100.767
100.765
100.764
100.763
100.762
100.761
100.761
102.078
102.073
102.068
102.059
102.048
102.035
102.019
102.002
101.982
101.96
101.937
101.913
101.888
101.862
101.836
101.809
101.783
101.757
101.732
101.707
101.684
101.662
101.641
101.622
101.604
101.587
101.571
101.556
101.542
101.527
101.513
101.499
101.485
101.471
101.457
101.444
101.432
101.421
101.411
101.403
101.396
101.392
101.39
101.39
101.392
101.396
101.403
101.412
101.422
101.434
101.448
101.462
101.477
101.492
101.507
101.521
101.535
101.548
101.56
101.571
101.581
101.589
101.596
101.601
101.606
101.609
101.61
101.611
101.61
101.608
101.606
101.602
101.597
101.591
101.584
101.576
101.568
101.558
101.548
101.538
101.527
101.515
101.502
101.49
101.477
101.463
101.45
101.436
101.422
101.409
101.395
101.381
101.368
101.354
101.341
101.329
101.316
101.304
101.293
101.282
101.271
101.262
101.252
101.244
101.236
101.229
101.222
101.216
101.211
101.206
101.202
101.199
101.196
101.193
101.192
101.19
101.189
101.189
101.188
101.188
101.189
101.189
101.19
101.191
101.192
101.193
101.194
101.195
101.196
101.197
101.198
101.198
101.199
101.2
101.2
101.201
101.201
101.201
101.202
101.202
101.201
101.201
101.201
101.2
101.2
101.199
101.198
101.197
101.196
101.195
101.194
101.193
101.192
101.19
101.189
101.187
101.185
101.183
101.181
101.179
101.176
101.174
101.171
101.168
101.164
101.16
101.156
101.151
101.147
101.141
101.136
101.129
101.123
101.116
101.109
101.101
101.094
101.085
101.077
101.068
101.06
101.051
101.042
101.034
101.025
101.016
101.008
101
100.992
100.984
100.977
100.97
100.964
100.958
100.952
100.947
100.942
100.938
100.934
100.93
100.927
100.924
100.921
100.918
100.916
100.914
100.911
100.909
100.907
100.905
100.903
100.9
100.898
100.895
100.892
100.89
100.887
100.883
100.88
100.877
100.873
100.869
100.865
100.861
100.857
100.853
100.849
100.844
100.84
100.836
100.831
100.827
100.823
100.818
100.814
100.81
100.806
100.802
100.798
100.794
100.791
100.787
100.784
100.781
100.778
100.775
100.773
100.77
100.768
100.767
100.765
100.764
100.763
100.762
100.761
100.761
102.013
102.01
102.006
102.001
101.994
101.985
101.974
101.961
101.946
101.93
101.912
101.893
101.874
101.854
101.834
101.813
101.793
101.774
101.754
101.736
101.718
101.701
101.685
101.669
101.654
101.639
101.624
101.609
101.594
101.578
101.562
101.546
101.529
101.512
101.495
101.479
101.463
101.449
101.435
101.423
101.413
101.405
101.399
101.396
101.394
101.395
101.399
101.404
101.412
101.422
101.433
101.445
101.459
101.473
101.488
101.502
101.517
101.53
101.543
101.555
101.566
101.576
101.584
101.591
101.597
101.601
101.604
101.606
101.606
101.606
101.604
101.601
101.597
101.591
101.585
101.578
101.57
101.561
101.551
101.541
101.53
101.518
101.506
101.493
101.48
101.466
101.453
101.439
101.425
101.411
101.397
101.383
101.369
101.356
101.343
101.33
101.318
101.306
101.294
101.283
101.273
101.263
101.254
101.245
101.238
101.23
101.224
101.218
101.213
101.208
101.204
101.201
101.198
101.196
101.194
101.193
101.192
101.191
101.191
101.191
101.191
101.192
101.192
101.193
101.194
101.195
101.196
101.197
101.198
101.2
101.201
101.201
101.202
101.203
101.204
101.204
101.204
101.205
101.205
101.205
101.204
101.204
101.203
101.203
101.202
101.201
101.2
101.199
101.197
101.196
101.194
101.193
101.191
101.189
101.187
101.185
101.182
101.18
101.177
101.174
101.171
101.168
101.165
101.161
101.157
101.153
101.149
101.144
101.139
101.133
101.127
101.121
101.115
101.108
101.101
101.093
101.086
101.078
101.07
101.062
101.053
101.045
101.037
101.028
101.02
101.012
101.004
100.996
100.989
100.982
100.975
100.968
100.962
100.957
100.951
100.946
100.942
100.937
100.934
100.93
100.927
100.924
100.921
100.918
100.916
100.914
100.911
100.909
100.907
100.905
100.902
100.9
100.897
100.895
100.892
100.889
100.886
100.883
100.879
100.876
100.872
100.868
100.864
100.86
100.856
100.851
100.847
100.843
100.838
100.834
100.829
100.825
100.821
100.816
100.812
100.808
100.804
100.8
100.796
100.792
100.789
100.785
100.782
100.779
100.776
100.774
100.771
100.769
100.767
100.765
100.764
100.763
100.762
100.761
100.76
100.76
101.947
101.946
101.944
101.942
101.938
101.933
101.927
101.919
101.91
101.899
101.886
101.873
101.86
101.845
101.831
101.817
101.803
101.79
101.777
101.764
101.752
101.74
101.727
101.715
101.703
101.689
101.676
101.661
101.645
101.628
101.611
101.592
101.573
101.554
101.534
101.515
101.496
101.478
101.462
101.446
101.433
101.421
101.412
101.405
101.4
101.397
101.397
101.4
101.404
101.411
101.42
101.43
101.442
101.455
101.469
101.483
101.498
101.512
101.525
101.538
101.55
101.561
101.571
101.58
101.587
101.593
101.597
101.6
101.602
101.602
101.601
101.599
101.596
101.591
101.586
101.579
101.572
101.563
101.554
101.544
101.533
101.521
101.509
101.496
101.483
101.469
101.456