# vtk DataFile Version 2.0
HPC Tutorials: Michael Bader, Kaveh Rahnema, Oliver Meister
ASCII
DATASET RECTILINEAR_GRID
DIMENSIONS 257 257 1
X_COORDINATES 257 float
0
0.005
0.01
0.015
0.02
0.025
0.03
0.035
0.04
0.045
0.05
0.055
0.06
0.065
0.07
0.075
0.08
0.085
0.09
0.095
0.1
0.105
0.11
0.115
0.12
0.125
0.13
0.135
0.14
0.145
0.15
0.155
0.16
0.165
0.17
0.175
0.18
0.185
0.19
0.195
0.2
0.205
0.21
0.215
0.22
0.225
0.23
0.235
0.24
0.245
0.25
0.255
0.26
0.265
0.27
0.275
0.28
0.285
0.29
0.295
0.3
0.305
0.31
0.315
0.32
0.325
0.33
0.335
0.34
0.345
0.35
0.355
0.36
0.365
0.37
0.375
0.38
0.385
0.39
0.395
0.4
0.405
0.41
0.415
0.42
0.425
0.43
0.435
0.44
0.445
0.45
0.455
0.46
0.465
0.47
0.475
0.48
0.485
0.49
0.495
0.5
0.505
0.51
0.515
0.52
0.525
0.53
0.535
0.54
0.545
0.55
0.555
0.56
0.565
0.57
0.575
0.58
0.585
0.59
0.595
0.6
0.605
0.61
0.615
0.62
0.625
0.63
0.635
0.64
0.645
0.65
0.655
0.66
0.665
0.67
0.675
0.68
0.685
0.69
0.695
0.7
0.705
0.71
0.715
0.72
0.725
0.73
0.735
0.74
0.745
0.75
0.755
0.76
0.765
0.77
0.775
0.78
0.785
0.79
0.795
0.8
0.805
0.81
0.815
0.82
0.825
0.83
0.835
0.84
0.845
0.85
0.855
0.86
0.865
0.87
0.875
0.88
0.885
0.89
0.895
0.9
0.905
0.91
0.915
0.92
0.925
0.93
0.935
0.94
0.945
0.95
0.955
0.96
0.965
0.97
0.975
0.98
0.985
0.99
0.995
1
1.005
1.01
1.015
1.02
1.025
1.03
1.035
1.04
1.045
1.05
1.055
1.06
1.065
1.07
1.075
1.08
1.085
1.09
1.095
1.1
1.105
1.11
1.115
1.12
1.125
1.13
1.135
1.14
1.145
1.15
1.155
1.16
1.165
1.17
1.175
1.18
1.185
1.19
1.195
1.2
1.205
1.21
1.215
1.22
1.225
1.23
1.235
1.24
1.245
1.25
1.255
1.26
1.265
1.27
1.275
1.28
Y_COORDINATES 257 float
0
0.005
0.01
0.015
0.02
0.025
0.03
0.035
0.04
0.045
0.05
0.055
0.06
0.065
0.07
0.075
0.08
0.085
0.09
0.095
0.1
0.105
0.11
0.115
0.12
0.125
0.13
0.135
0.14
0.145
0.15
0.155
0.16
0.165
0.17
0.175
0.18
0.185
0.19
0.195
0.2
0.205
0.21
0.215
0.22
0.225
0.23
0.235
0.24
0.245
0.25
0.255
0.26
0.265
0.27
0.275
0.28
0.285
0.29
0.295
0.3
0.305
0.31
0.315
0.32
0.325
0.33
0.335
0.34
0.345
0.35
0.355
0.36
0.365
0.37
0.375
0.38
0.385
0.39
0.395
0.4
0.405
0.41
0.415
0.42
0.425
0.43
0.435
0.44
0.445
0.45
0.455
0.46
0.465
0.47
0.475
0.48
0.485
0.49
0.495
0.5
0.505
0.51
0.515
0.52
0.525
0.53
0.535
0.54
0.545
0.55
0.555
0.56
0.565
0.57
0.575
0.58
0.585
0.59
0.595
0.6
0.605
0.61
0.615
0.62
0.625
0.63
0.635
0.64
0.645
0.65
0.655
0.66
0.665
0.67
0.675
0.68
0.685
0.69
0.695
0.7
0.705
0.71
0.715
0.72
0.725
0.73
0.735
0.74
0.745
0.75
0.755
0.76
0.765
0.77
0.775
0.78
0.785
0.79
0.795
0.8
0.805
0.81
0.815
0.82
0.825
0.83
0.835
0.84
0.845
0.85
0.855
0.86
0.865
0.87
0.875
0.88
0.885
0.89
0.895
0.9
0.905
0.91
0.915
0.92
0.925
0.93
0.935
0.94
0.945
0.95
0.955
0.96
0.965
0.97
0.975
0.98
0.985
0.99
0.995
1
1.005
1.01
1.015
1.02
1.025
1.03
1.035
1.04
1.045
1.05
1.055
1.06
1.065
1.07
1.075
1.08
1.085
1.09
1.095
1.1
1.105
1.11
1.115
1.12
1.125
1.13
1.135
1.14
1.145
1.15
1.155
1.16
1.165
1.17
1.175
1.18
1.185
1.19
1.195
1.2
1.205
1.21
1.215
1.22
1.225
1.23
1.235
1.24
1.245
1.25
1.255
1.26
1.265
1.27
1.275
1.28
Z_COORDINATES 1 float
0
CELL_DATA 65536
SCALARS H float 1
LOOKUP_TABLE default
101.667
101.667
101.667
101.667
101.667
101.667
101.667
101.668
101.67
101.671
101.674
101.677
101.681
101.686
101.692
101.698
101.704
101.711
101.719
101.726
101.734
101.741
101.748
101.755
101.761
101.766
101.77
101.774
101.777
101.778
101.779
101.778
101.777
101.774
101.771
101.767
101.762
101.756
101.75
101.744
101.737
101.729
101.722
101.714
101.707
101.7
101.692
101.685
101.678
101.672
101.666
101.66
101.654
101.649
101.643
101.638
101.633
101.628
101.622
101.617
101.611
101.604
101.597
101.59
101.581
101.572
101.563
101.552
101.541
101.529
101.516
101.503
101.49
101.476
101.461
101.447
101.432
101.418
101.403
101.389
101.375
101.362
101.349
101.337
101.325
101.314
101.304
101.295
101.286
101.279
101.272
101.266
101.26
101.255
101.251
101.248
101.245
101.242
101.24
101.238
101.236
101.235
101.233
101.232
101.23
101.229
101.227
101.226
101.224
101.222
101.22
101.217
101.214
101.211
101.208
101.204
101.201
101.197
101.192
101.188
101.184
101.18
101.175
101.171
101.167
101.163
101.159
101.155
101.152
101.148
101.146
101.143
101.141
101.139
101.137
101.136
101.135
101.134
101.133
101.133
101.132
101.132
101.132
101.132
101.132
101.132
101.132
101.132
101.133
101.133
101.133
101.133
101.133
101.133
101.132
101.132
101.132
101.132
101.132
101.131
101.131
101.131
101.13
101.13
101.13
101.13
101.13
101.13
101.13
101.13
101.13
101.13
101.131
101.131
101.132
101.132
101.132
101.133
101.133
101.134
101.134
101.134
101.134
101.134
101.134
101.133
101.132
101.132
101.13
101.129
101.127
101.125
101.123
101.121
101.118
101.115
101.112
101.109
101.105
101.102
101.098
101.094
101.09
101.086
101.082
101.078
101.074
101.069
101.065
101.061
101.056
101.052
101.047
101.042
101.037
101.033
101.028
101.022
101.017
101.012
101.006
101.001
100.995
100.989
100.983
100.977
100.971
100.964
100.958
100.952
100.945
100.939
100.932
100.926
100.92
100.913
100.907
100.901
100.895
100.89
100.884
100.879
100.874
100.87
100.866
100.862
100.858
100.855
100.852
100.849
100.847
100.845
100.843
100.842
100.842
100.841
101.667
101.667
101.667
101.667
101.667
101.667
101.667
101.668
101.67
101.672
101.674
101.678
101.682
101.686
101.692
101.698
101.704
101.711
101.718
101.726
101.733
101.74
101.747
101.754
101.76
101.765
101.77
101.773
101.776
101.777
101.778
101.778
101.776
101.774
101.771
101.766
101.762
101.756
101.75
101.743
101.737
101.729
101.722
101.715
101.707
101.7
101.693
101.686
101.679
101.673
101.666
101.66
101.655
101.649
101.644
101.639
101.633
101.628
101.623
101.617
101.611
101.604
101.597
101.589
101.581
101.572
101.562
101.552
101.54
101.529
101.516
101.503
101.49
101.476
101.461
101.447
101.433
101.418
101.404
101.39
101.376
101.363
101.35
101.338
101.327
101.316
101.306
101.297
101.288
101.28
101.273
101.267
101.262
101.257
101.253
101.249
101.246
101.243
101.241
101.238
101.237
101.235
101.234
101.232
101.231
101.229
101.228
101.226
101.224
101.222
101.22
101.217
101.215
101.212
101.208
101.205
101.201
101.197
101.193
101.189
101.185
101.181
101.176
101.172
101.168
101.164
101.16
101.156
101.153
101.149
101.146
101.144
101.141
101.139
101.137
101.136
101.135
101.134
101.133
101.132
101.132
101.131
101.131
101.131
101.131
101.131
101.131
101.131
101.131
101.131
101.131
101.131
101.131
101.131
101.131
101.131
101.13
101.13
101.13
101.13
101.129
101.129
101.129
101.129
101.128
101.128
101.128
101.128
101.128
101.128
101.128
101.128
101.129
101.129
101.129
101.129
101.13
101.13
101.13
101.13
101.13
101.13
101.13
101.13
101.13
101.129
101.128
101.127
101.125
101.124
101.122
101.12
101.118
101.115
101.112
101.109
101.106
101.103
101.099
101.096
101.092
101.088
101.084
101.08
101.076
101.072
101.068
101.064
101.06
101.056
101.052
101.047
101.043
101.038
101.034
101.029
101.025
101.02
101.015
101.01
101.005
100.999
100.994
100.988
100.982
100.977
100.971
100.964
100.958
100.952
100.946
100.94
100.933
100.927
100.921
100.915
100.909
100.903
100.897
100.892
100.887
100.882
100.877
100.872
100.868
100.864
100.861
100.857
100.854
100.852
100.85
100.848
100.846
100.845
100.845
100.844
101.667
101.667
101.667
101.667
101.667
101.667
101.668
101.669
101.67
101.672
101.675
101.678
101.682
101.686
101.692
101.697
101.704
101.71
101.717
101.725
101.732
101.739
101.746
101.752
101.758
101.764
101.768
101.772
101.774
101.776
101.777
101.777
101.775
101.773
101.77
101.766
101.761
101.756
101.75
101.743
101.737
101.73
101.722
101.715
101.708
101.701
101.694
101.687
101.68
101.674
101.667
101.662
101.656
101.65
101.645
101.64
101.634
101.629
101.623
101.617
101.611
101.604
101.597
101.589
101.581
101.571
101.562
101.551
101.54
101.528
101.516
101.503
101.489
101.476
101.462
101.448
101.434
101.419
101.405
101.392
101.378
101.365
101.353
101.341
101.329
101.319
101.309
101.299
101.291
101.283
101.276
101.27
101.264
101.259
101.255
101.251
101.247
101.244
101.242
101.24
101.238
101.236
101.234
101.233
101.231
101.23
101.228
101.227
101.225
101.223
101.221
101.218
101.216
101.213
101.209
101.206
101.203
101.199
101.195
101.191
101.186
101.182
101.178
101.174
101.169
101.165
101.161
101.158
101.154
101.151
101.148
101.145
101.142
101.14
101.138
101.136
101.135
101.134
101.132
101.132
101.131
101.13
101.13
101.13
101.129
101.129
101.129
101.129
101.129
101.129
101.129
101.129
101.129
101.129
101.128
101.128
101.128
101.128
101.127
101.127
101.127
101.127
101.126
101.126
101.126
101.126
101.125
101.125
101.125
101.125
101.125
101.125
101.125
101.125
101.125
101.125
101.125
101.125
101.125
101.125
101.125
101.125
101.124
101.124
101.123
101.122
101.121
101.119
101.118
101.116
101.114
101.111
101.109
101.106
101.103
101.1
101.097
101.093
101.09
101.086
101.083
101.079
101.075
101.071
101.068
101.064
101.06
101.056
101.052
101.048
101.045
101.041
101.037
101.033
101.028
101.024
101.02
101.016
101.011
101.006
101.002
100.997
100.992
100.986
100.981
100.976
100.97
100.964
100.959
100.953
100.947
100.941
100.935
100.929
100.923
100.917
100.912
100.906
100.901
100.895
100.89
100.885
100.881
100.876
100.872
100.868
100.865
100.862
100.859
100.856
100.854
100.852
100.851
100.85
100.849
100.849
101.667
101.667
101.667
101.667
101.667
101.667
101.668
101.669
101.671
101.673
101.675
101.678
101.682
101.687
101.692
101.697
101.703
101.71
101.717
101.724
101.731
101.738
101.744
101.751
101.757
101.762
101.766
101.77
101.773
101.774
101.775
101.775
101.774
101.772
101.769
101.765
101.76
101.755
101.749
101.743
101.737
101.73
101.723
101.716
101.709
101.702
101.695
101.688
101.681
101.675
101.669
101.663
101.658
101.652
101.646
101.641
101.635
101.63
101.624
101.618
101.611
101.604
101.597
101.589
101.58
101.571
101.561
101.55
101.539
101.527
101.515
101.502
101.489
101.476
101.462
101.449
101.435
101.421
101.407
101.394
101.381
101.368
101.356
101.344
101.333
101.322
101.312
101.303
101.295
101.287
101.28
101.273
101.267
101.262
101.257
101.253
101.25
101.247
101.244
101.241
101.239
101.237
101.236
101.234
101.232
101.231
101.229
101.228
101.226
101.224
101.222
101.219
101.217
101.214
101.211
101.208
101.204
101.201
101.197
101.193
101.189
101.184
101.18
101.176
101.172
101.168
101.164
101.16
101.156
101.153
101.149
101.146
101.144
101.141
101.139
101.137
101.135
101.133
101.132
101.131
101.13
101.129
101.129
101.128
101.128
101.127
101.127
101.127
101.126
101.126
101.126
101.126
101.126
101.125
101.125
101.125
101.125
101.124
101.124
101.124
101.123
101.123
101.123
101.122
101.122
101.122
101.121
101.121
101.121
101.121
101.12
101.12
101.12
101.12
101.119
101.119
101.119
101.119
101.118
101.118
101.117
101.116
101.115
101.114
101.113
101.112
101.11
101.108
101.106
101.104
101.101
101.099
101.096
101.093
101.09
101.087
101.083
101.08
101.076
101.073
101.069
101.066
101.062
101.059
101.055
101.052
101.048
101.045
101.042
101.038
101.035
101.031
101.028
101.024
101.021
101.017
101.014
101.01
101.006
101.002
100.998
100.993
100.989
100.984
100.979
100.974
100.969
100.964
100.959
100.954
100.948
100.943
100.937
100.932
100.926
100.921
100.916
100.91
100.905
100.9
100.895
100.891
100.886
100.882
100.878
100.874
100.871
100.868
100.865
100.863
100.861
100.859
100.858
100.857
100.856
100.856
101.667
101.667
101.667
101.667
101.667
101.668
101.669
101.67
101.671
101.673
101.676
101.679
101.683
101.687
101.692
101.697
101.703
101.709
101.716
101.722
101.729
101.736
101.742
101.749
101.754
101.76
101.764
101.768
101.77
101.772
101.773
101.773
101.772
101.77
101.768
101.764
101.76
101.755
101.749
101.743
101.737
101.73
101.723
101.717
101.71
101.703
101.696
101.69
101.683
101.677
101.671
101.665
101.66
101.654
101.648
101.643
101.637
101.631
101.625
101.618
101.611
101.604
101.596
101.588
101.579
101.57
101.56
101.549
101.538
101.527
101.515
101.502
101.489
101.476
101.463
101.45
101.437
101.423
101.41
101.397
101.384
101.372
101.36
101.349
101.338
101.327
101.317
101.308
101.3
101.292
101.284
101.278
101.272
101.266
101.261
101.257
101.253
101.25
101.247
101.244
101.241
101.239
101.237
101.236
101.234
101.232
101.231
101.229
101.227
101.225
101.223
101.221
101.218
101.216
101.213
101.21
101.207
101.203
101.199
101.195
101.191
101.187
101.183
101.179
101.175
101.17
101.166
101.162
101.159
101.155
101.152
101.148
101.145
101.143
101.14
101.138
101.136
101.134
101.132
101.13
101.129
101.128
101.127
101.126
101.125
101.125
101.124
101.124
101.123
101.123
101.122
101.122
101.122
101.121
101.121
101.121
101.12
101.12
101.12
101.119
101.119
101.118
101.118
101.117
101.117
101.116
101.116
101.116
101.115
101.114
101.114
101.113
101.113
101.112
101.112
101.111
101.11
101.109
101.109
101.108
101.106
101.105
101.104
101.102
101.1
101.098
101.096
101.094
101.092
101.089
101.086
101.083
101.08
101.077
101.073
101.07
101.067
101.063
101.06
101.056
101.053
101.05
101.047
101.043
101.04
101.037
101.034
101.031
101.029
101.026
101.023
101.02
101.017
101.015
101.012
101.009
101.006
101.003
101
100.996
100.993
100.989
100.985
100.981
100.977
100.973
100.969
100.964
100.96
100.955
100.95
100.945
100.94
100.935
100.93
100.925
100.92
100.916
100.911
100.906
100.902
100.897
100.893
100.889
100.886
100.882
100.879
100.876
100.874
100.871
100.869
100.868
100.866
100.865
100.865
100.865
101.667
101.667
101.667
101.667
101.668
101.668
101.669
101.671
101.672
101.674
101.677
101.68
101.683
101.687
101.692
101.697
101.702
101.708
101.714
101.721
101.727
101.734
101.74
101.746
101.752
101.757
101.761
101.765
101.768
101.77
101.771
101.771
101.77
101.769
101.766
101.763
101.759
101.754
101.749
101.743
101.737
101.731
101.724
101.718
101.711
101.704
101.698
101.692
101.686
101.679
101.674
101.668
101.662
101.656
101.65
101.645
101.639
101.632
101.626
101.619
101.612
101.604
101.596
101.587
101.578
101.569
101.559
101.548
101.537
101.526
101.514
101.502
101.49
101.477
101.464
101.451
101.439
101.426
101.413
101.401
101.388
101.376
101.365
101.354
101.343
101.333
101.323
101.314
101.305
101.297
101.29
101.283
101.277
101.271
101.266
101.261
101.257
101.253
101.25
101.247
101.244
101.242
101.24
101.238
101.236
101.234
101.232
101.231
101.229
101.227
101.225
101.223
101.221
101.218
101.215
101.212
101.209
101.206
101.202
101.198
101.194
101.19
101.186
101.182
101.178
101.174
101.169
101.165
101.162
101.158
101.154
101.151
101.147
101.144
101.141
101.139
101.136
101.134
101.132
101.13
101.129
101.127
101.126
101.124
101.123
101.122
101.121
101.121
101.12
101.119
101.119
101.118
101.118
101.117
101.117
101.116
101.115
101.115
101.114
101.114
101.113
101.113
101.112
101.111
101.111
101.11
101.109
101.108
101.108
101.107
101.106
101.105
101.104
101.103
101.102
101.101
101.099
101.098
101.097
101.095
101.093
101.092
101.09
101.087
101.085
101.083
101.08
101.077
101.074
101.071
101.068
101.064
101.061
101.057
101.054
101.051
101.047
101.044
101.041
101.037
101.034
101.031
101.028
101.026
101.023
101.021
101.018
101.016
101.014
101.012
101.01
101.008
101.005
101.003
101.001
100.999
100.997
100.995
100.992
100.99
100.987
100.984
100.981
100.978
100.975
100.971
100.968
100.964
100.96
100.956
100.952
100.948
100.944
100.939
100.935
100.93
100.926
100.922
100.918
100.913
100.909
100.905
100.902
100.898
100.895
100.892
100.889
100.886
100.884
100.882
100.88
100.878
100.877
100.876
100.876
100.875
101.667
101.667
101.668
101.668
101.669
101.669
101.67
101.672
101.673
101.675
101.678
101.681
101.684
101.688
101.692
101.697
101.702
101.707
101.713
101.719
101.725
101.732
101.738
101.744
101.749
101.754
101.758
101.762
101.765
101.767
101.768
101.769
101.768
101.767
101.764
101.761
101.758
101.753
101.748
101.743
101.737
101.731
101.725
101.719
101.713
101.706
101.7
101.694
101.688
101.682
101.676
101.67
101.665
101.659
101.653
101.647
101.64
101.634
101.627
101.62
101.612
101.604
101.596
101.587
101.578
101.568
101.558
101.547
101.537
101.525
101.514
101.502
101.49
101.478
101.466
101.453
101.441
101.429
101.417
101.405
101.393
101.382
101.37
101.36
101.349
101.339
101.33
101.321
101.312
101.304
101.297
101.29
101.283
101.277
101.271
101.266
101.262
101.258
101.254
101.251
101.248
101.245
101.243
101.241
101.239
101.237
101.235
101.233
101.231
101.229
101.227
101.225
101.223
101.22
101.218
101.215
101.212
101.208
101.205
101.201
101.197
101.193
101.189
101.185
101.181
101.177
101.173
101.169
101.165
101.161
101.157
101.153
101.15
101.147
101.143
101.14
101.138
101.135
101.133
101.13
101.128
101.126
101.125
101.123
101.121
101.12
101.119
101.118
101.117
101.116
101.115
101.114
101.113
101.112
101.111
101.111
101.11
101.109
101.108
101.107
101.107
101.106
101.105
101.104
101.103
101.102
101.101
101.1
101.098
101.097
101.096
101.094
101.093
101.091
101.09
101.088
101.086
101.085
101.082
101.08
101.078
101.076
101.073
101.07
101.067
101.064
101.061
101.058
101.054
101.051
101.047
101.043
101.04
101.036
101.032
101.029
101.026
101.022
101.019
101.016
101.014
101.011
101.008
101.006
101.004
101.002
101.001
100.999
100.998
100.996
100.995
100.994
100.993
100.991
100.99
100.989
100.988
100.986
100.985
100.983
100.981
100.979
100.977
100.975
100.972
100.97
100.967
100.964
100.961
100.958
100.954
100.951
100.947
100.944
100.94
100.936
100.933
100.929
100.925
100.922
100.918
100.915
100.911
100.908
100.905
100.902
100.9
100.897
100.895
100.893
100.892
100.89
100.889
100.888
100.888
100.888
101.668
101.668
101.669
101.669
101.67
101.671
101.672
101.673
101.675
101.677
101.679
101.682
101.685
101.688
101.692
101.697
101.701
101.707
101.712
101.718
101.724
101.729
101.735
101.741
101.746
101.751
101.755
101.759
101.762
101.764
101.766
101.766
101.766
101.765
101.763
101.76
101.757
101.753
101.748
101.743
101.738
101.732
101.726
101.721
101.715
101.709
101.703
101.697
101.691
101.685
101.679
101.673
101.667
101.661
101.655
101.649
101.642
101.635
101.628
101.62
101.613
101.604
101.596
101.587
101.577
101.567
101.557
101.547
101.536
101.525
101.514
101.502
101.491
101.479
101.467
101.456
101.444
101.432
101.421
101.409
101.398
101.387
101.377
101.366
101.356
101.346
101.337
101.328
101.32
101.311
101.304
101.297
101.29
101.284
101.278
101.272
101.268
101.263
101.259
101.255
101.252
101.249
101.247
101.244
101.242
101.24
101.238
101.236
101.234
101.232
101.23
101.228
101.226
101.223
101.221
101.218
101.215
101.211
101.208
101.204
101.201
101.197
101.193
101.189
101.185
101.181
101.176
101.172
101.168
101.164
101.16
101.156
101.153
101.149
101.146
101.143
101.139
101.136
101.134
101.131
101.129
101.126
101.124
101.122
101.12
101.118
101.116
101.115
101.113
101.112
101.111
101.109
101.108
101.107
101.106
101.105
101.104
101.102
101.101
101.1
101.099
101.098
101.097
101.095
101.094
101.092
101.091
101.089
101.088
101.086
101.084
101.082
101.08
101.078
101.076
101.074
101.071
101.069
101.066
101.064
101.061
101.058
101.054
101.051
101.047
101.044
101.04
101.036
101.032
101.028
101.024
101.02
101.016
101.013
101.009
101.006
101.002
100.999
100.997
100.994
100.992
100.989
100.987
100.986
100.984
100.983
100.982
100.981
100.981
100.98
100.98
100.979
100.979
100.979
100.978
100.978
100.977
100.977
100.976
100.976
100.975
100.974
100.972
100.971
100.969
100.968
100.966
100.964
100.961
100.959
100.957
100.954
100.951
100.948
100.945
100.942
100.939
100.936
100.933
100.93
100.928
100.925
100.922
100.919
100.917
100.914
100.912
100.91
100.908
100.907
100.905
100.904
100.903
100.902
100.902
100.902
101.67
101.67
101.67
101.671
101.671
101.672
101.673
101.675
101.676
101.678
101.68
101.683
101.686
101.689
101.693
101.697
101.701
101.706
101.711
101.716
101.722
101.727
101.733
101.738
101.743
101.748
101.752
101.756
101.759
101.761
101.763
101.764
101.763
101.763
101.761
101.759
101.756
101.752
101.748
101.743
101.738
101.733
101.728
101.722
101.717
101.711
101.705
101.7
101.694
101.688
101.682
101.676
101.67
101.664
101.658
101.651
101.644
101.637
101.629
101.621
101.613
101.604
101.595
101.586
101.577
101.567
101.557
101.546
101.536
101.525
101.514
101.503
101.492
101.48
101.469
101.458
101.447
101.436
101.425
101.414
101.404
101.393
101.383
101.373
101.363
101.354
101.345
101.336
101.328
101.32
101.312
101.304
101.298
101.291
101.285
101.279
101.274
101.269
101.265
101.261
101.257
101.254
101.251
101.248
101.246
101.244
101.241
101.239
101.237
101.235
101.233
101.231
101.229
101.226
101.223
101.221
101.218
101.215
101.211
101.208
101.204
101.2
101.196
101.192
101.188
101.184
101.18
101.176
101.172
101.168
101.164
101.16
101.156
101.152
101.149
101.145
101.142
101.138
101.135
101.132
101.129
101.126
101.124
101.121
101.119
101.117
101.114
101.112
101.11
101.108
101.107
101.105
101.103
101.102
101.1
101.098
101.097
101.095
101.094
101.092
101.091
101.089
101.087
101.085
101.084
101.082
101.08
101.078
101.076
101.073
101.071
101.069
101.066
101.063
101.061
101.058
101.055
101.052
101.048
101.045
101.041
101.038
101.034
101.03
101.026
101.021
101.017
101.013
101.008
101.004
101
100.996
100.992
100.988
100.985
100.981
100.978
100.975
100.973
100.971
100.969
100.967
100.966
100.965
100.964
100.964
100.963
100.963
100.963
100.963
100.964
100.964
100.965
100.965
100.966
100.966
100.967
100.967
100.968
100.968
100.968
100.968
100.967
100.967
100.966
100.965
100.964
100.963
100.962
100.96
100.959
100.957
100.955
100.953
100.951
100.949
100.947
100.944
100.942
100.94
100.938
100.935
100.933
100.931
100.929
100.927
100.925
100.924
100.922
100.921
100.92
100.919
100.918
100.918
100.917
100.917
101.672
101.672
101.672
101.673
101.673
101.674
101.675
101.677
101.678
101.68
101.682
101.684
101.687
101.69
101.693
101.697
101.701
101.705
101.71
101.715
101.72
101.725
101.73
101.735
101.74
101.745
101.749
101.753
101.756
101.758
101.76
101.761
101.761
101.761
101.759
101.757
101.755
101.752
101.748
101.744
101.739
101.735
101.73
101.724
101.719
101.714
101.708
101.703
101.697
101.691
101.685
101.679
101.673
101.667
101.66
101.653
101.646
101.638
101.63
101.622
101.614
101.605
101.595
101.586
101.576
101.566
101.556
101.546
101.535
101.525
101.514
101.504
101.493
101.482
101.472
101.461
101.45
101.44
101.43
101.42
101.41
101.4
101.39
101.38
101.371
101.362
101.353
101.345
101.336
101.328
101.32
101.313
101.306
101.299
101.293
101.287
101.281
101.276
101.272
101.267
101.263
101.26
101.256
101.253
101.251
101.248
101.246
101.243
101.241
101.239
101.236
101.234
101.232
101.229
101.226
101.224
101.221
101.218
101.214
101.211
101.207
101.204
101.2
101.196
101.192
101.188
101.184
101.18
101.176
101.172
101.168
101.164
101.16
101.156
101.152
101.148
101.145
101.141
101.137
101.134
101.131
101.127
101.124
101.121
101.118
101.115
101.113
101.11
101.107
101.105
101.103
101.1
101.098
101.096
101.094
101.092
101.09
101.088
101.086
101.083
101.081
101.079
101.077
101.075
101.073
101.07
101.068
101.065
101.062
101.06
101.057
101.054
101.051
101.047
101.044
101.041
101.037
101.033
101.029
101.025
101.021
101.017
101.012
101.007
101.003
100.998
100.993
100.989
100.984
100.979
100.975
100.971
100.967
100.963
100.96
100.957
100.954
100.951
100.949
100.947
100.946
100.945
100.944
100.944
100.944
100.944
100.944
100.945
100.946
100.947
100.948
100.949
100.951
100.952
100.953
100.955
100.956
100.957
100.958
100.959
100.96
100.961
100.962
100.962
100.962
100.962
100.962
100.962
100.962
100.961
100.96
100.96
100.959
100.957
100.956
100.955
100.954
100.952
100.951
100.949
100.948
100.946
100.945
100.943
100.942
100.941
100.939
100.938
100.937
100.936
100.935
100.935
100.934
100.934
100.933
100.933
101.674
101.675
101.675
101.675
101.676
101.677
101.678
101.679
101.68
101.682
101.684
101.686
101.688
101.691
101.694
101.697
101.701
101.705
101.709
101.714
101.718
101.723
101.728
101.733
101.738
101.742
101.746
101.75
101.753
101.755
101.757
101.758
101.759
101.759
101.758
101.756
101.754
101.751
101.748
101.744
101.74
101.736
101.731
101.727
101.722
101.717
101.711
101.706
101.7
101.695
101.689
101.682
101.676
101.669
101.663
101.655
101.648
101.64
101.632
101.623
101.614
101.605
101.596
101.586
101.576
101.566
101.556
101.546
101.536
101.525
101.515
101.505
101.494
101.484
101.474
101.464
101.454
101.444
101.435
101.425
101.416
101.406
101.397
101.388
101.379
101.37
101.362
101.353
101.345
101.337
101.329
101.322
101.315
101.308
101.301
101.295
101.29
101.284
101.279
101.274
101.27
101.266
101.262
101.259
101.256
101.253
101.25
101.248
101.245
101.243
101.24
101.238
101.235
101.232
101.23
101.227
101.224
101.221
101.217
101.214
101.211
101.207
101.204
101.2
101.196
101.192
101.188
101.184
101.18
101.176
101.172
101.168
101.164
101.16
101.156
101.152
101.148
101.144
101.14
101.136
101.132
101.129
101.125
101.121
101.118
101.114
101.111
101.108
101.105
101.102
101.099
101.096
101.093
101.09
101.087
101.085
101.082
101.08
101.077
101.074
101.072
101.069
101.066
101.064
101.061
101.058
101.055
101.052
101.048
101.045
101.042
101.038
101.034
101.03
101.026
101.022
101.018
101.014
101.009
101.004
100.999
100.994
100.989
100.984
100.979
100.974
100.969
100.964
100.959
100.954
100.95
100.945
100.942
100.938
100.935
100.932
100.929
100.927
100.926
100.924
100.923
100.923
100.923
100.923
100.924
100.924
100.926
100.927
100.929
100.93
100.932
100.934
100.936
100.939
100.941
100.943
100.945
100.947
100.949
100.951
100.952
100.954
100.955
100.957
100.958
100.959
100.96
100.96
100.961
100.961
100.961
100.961
100.961
100.961
100.961
100.961
100.96
100.96
100.959
100.959
100.958
100.957
100.957
100.956
100.955
100.954
100.954
100.953
100.952
100.952
100.951
100.951
100.951
100.951
100.95
100.95
101.678
101.678
101.678
101.679
101.679
101.68
101.681
101.682
101.683
101.684
101.686
101.688
101.69
101.692
101.695
101.698
101.701
101.705
101.708
101.713
101.717
101.721
101.726
101.731
101.735
101.739
101.743
101.747
101.75
101.753
101.755
101.756
101.757
101.757
101.756
101.755
101.754
101.751
101.748
101.745
101.742
101.738
101.734
101.729
101.724
101.719
101.714
101.709
101.704
101.698
101.692
101.685
101.679
101.672
101.665
101.657
101.649
101.641
101.633
101.624
101.615
101.605
101.596
101.586
101.576
101.566
101.556
101.546
101.536
101.526
101.516
101.506
101.496
101.486
101.477
101.467
101.458
101.449
101.44
101.431
101.422
101.413
101.405
101.396
101.387
101.379
101.371
101.363
101.355
101.347
101.339
101.332
101.324
101.317
101.311
101.304
101.298
101.293
101.287
101.282
101.278
101.273
101.269
101.265
101.262
101.258
101.255
101.252
101.249
101.247
101.244
101.241
101.238
101.236
101.233
101.23
101.227
101.224
101.221
101.217
101.214
101.211
101.207
101.204
101.2
101.196
101.193
101.189
101.185
101.181
101.177
101.173
101.169
101.164
101.16
101.156
101.152
101.147
101.143
101.139
101.134
101.13
101.126
101.122
101.118
101.114
101.11
101.106
101.102
101.098
101.095
101.091
101.088
101.084
101.081
101.078
101.075
101.071
101.068
101.065
101.062
101.059
101.055
101.052
101.049
101.045
101.041
101.038
101.034
101.03
101.026
101.022
101.017
101.013
101.008
101.004
100.999
100.994
100.988
100.983
100.978
100.972
100.966
100.961
100.955
100.949
100.944
100.939
100.934
100.929
100.924
100.92
100.917
100.913
100.91
100.908
100.906
100.904
100.903
100.902
100.902
100.902
100.902
100.903
100.904
100.906
100.907
100.909
100.912
100.914
100.917
100.919
100.922
100.925
100.928
100.931
100.933
100.936
100.939
100.941
100.944
100.946
100.948
100.95
100.952
100.954
100.956
100.957
100.959
100.96
100.961
100.962
100.963
100.964
100.965
100.966
100.966
100.967
100.967
100.967
100.968
100.968
100.968
100.968
100.968
100.968
100.968
100.968
100.968
100.968
100.968
100.968
100.967
100.967
100.967
100.967
101.682
101.682
101.682
101.682
101.683
101.683
101.684
101.685
101.686
101.687
101.688
101.69
101.692
101.694
101.696
101.698
101.701
101.705
101.708
101.712
101.716
101.72
101.724
101.729
101.733
101.737
101.741
101.745
101.748
101.75
101.753
101.754
101.755
101.756
101.755
101.755
101.753
101.751
101.749
101.746
101.743
101.74
101.736
101.732
101.727
101.722
101.717
101.712
101.707
101.701
101.695
101.688
101.681
101.674
101.667
101.659
101.651
101.642
101.634
101.625
101.615
101.606
101.596
101.586
101.577
101.567
101.557
101.547
101.537
101.527
101.517
101.508
101.498
101.489
101.48
101.471
101.462
101.454
101.445
101.437
101.428
101.42
101.412
101.404
101.396
101.388
101.38
101.372
101.364
101.356
101.349
101.342
101.334
101.327
101.32
101.314
101.308
101.302
101.296
101.291
101.286
101.281
101.276
101.272
101.268
101.264
101.261
101.257
101.254
101.251
101.248
101.245
101.242
101.239
101.236
101.233
101.23
101.227
101.224
101.221
101.218
101.214
101.211
101.208
101.204
101.201
101.197
101.194
101.19
101.186
101.182
101.178
101.173
101.169
101.165
101.16
101.156
101.151
101.146
101.141
101.137
101.132
101.127
101.123
101.118
101.113
101.109
101.104
101.1
101.095
101.091
101.087
101.083
101.079
101.075
101.071
101.067
101.063
101.06
101.056
101.052
101.048
101.044
101.04
101.036
101.032
101.028
101.024
101.019
101.015
101.01
101.005
101.001
100.995
100.99
100.985
100.979
100.974
100.968
100.962
100.956
100.95
100.943
100.937
100.931
100.925
100.92
100.914
100.909
100.904
100.9
100.896
100.892
100.889
100.887
100.884
100.883
100.882
100.881
100.881
100.881
100.881
100.882
100.884
100.885
100.887
100.89
100.892
100.895
100.898
100.901
100.904
100.908
100.911
100.915
100.918
100.921
100.925
100.928
100.931
100.934
100.937
100.94
100.943
100.946
100.948
100.951
100.953
100.956
100.958
100.96
100.962
100.964
100.966
100.968
100.969
100.971
100.972
100.974
100.975
100.976
100.977
100.978
100.979
100.98
100.981
100.981
100.982
100.982
100.983
100.983
100.983
100.984
100.984
100.984
100.984
101.687
101.687
101.687
101.687
101.687
101.688
101.688
101.689
101.689
101.69
101.691
101.692
101.694
101.695
101.697
101.7
101.702
101.705
101.708
101.712
101.715
101.719
101.723
101.727
101.731
101.735
101.739
101.743
101.746
101.748
101.751
101.753
101.754
101.755
101.755
101.754
101.753
101.752
101.75
101.748
101.745
101.742
101.738
101.734
101.73
101.725
101.72
101.715
101.71
101.704
101.697
101.691
101.684
101.676
101.669
101.661
101.652
101.644
101.635
101.626
101.616
101.606
101.597
101.587
101.577
101.567
101.557
101.547
101.538
101.528
101.519
101.51
101.501
101.492
101.483
101.475
101.467
101.459
101.451
101.443
101.435
101.427
101.42
101.412