# vtk DataFile Version 2.0
HPC Tutorials: Michael Bader, Kaveh Rahnema, Oliver Meister
ASCII
DATASET RECTILINEAR_GRID
DIMENSIONS 257 257 1
X_COORDINATES 257 float
0
0.005
0.01
0.015
0.02
0.025
0.03
0.035
0.04
0.045
0.05
0.055
0.06
0.065
0.07
0.075
0.08
0.085
0.09
0.095
0.1
0.105
0.11
0.115
0.12
0.125
0.13
0.135
0.14
0.145
0.15
0.155
0.16
0.165
0.17
0.175
0.18
0.185
0.19
0.195
0.2
0.205
0.21
0.215
0.22
0.225
0.23
0.235
0.24
0.245
0.25
0.255
0.26
0.265
0.27
0.275
0.28
0.285
0.29
0.295
0.3
0.305
0.31
0.315
0.32
0.325
0.33
0.335
0.34
0.345
0.35
0.355
0.36
0.365
0.37
0.375
0.38
0.385
0.39
0.395
0.4
0.405
0.41
0.415
0.42
0.425
0.43
0.435
0.44
0.445
0.45
0.455
0.46
0.465
0.47
0.475
0.48
0.485
0.49
0.495
0.5
0.505
0.51
0.515
0.52
0.525
0.53
0.535
0.54
0.545
0.55
0.555
0.56
0.565
0.57
0.575
0.58
0.585
0.59
0.595
0.6
0.605
0.61
0.615
0.62
0.625
0.63
0.635
0.64
0.645
0.65
0.655
0.66
0.665
0.67
0.675
0.68
0.685
0.69
0.695
0.7
0.705
0.71
0.715
0.72
0.725
0.73
0.735
0.74
0.745
0.75
0.755
0.76
0.765
0.77
0.775
0.78
0.785
0.79
0.795
0.8
0.805
0.81
0.815
0.82
0.825
0.83
0.835
0.84
0.845
0.85
0.855
0.86
0.865
0.87
0.875
0.88
0.885
0.89
0.895
0.9
0.905
0.91
0.915
0.92
0.925
0.93
0.935
0.94
0.945
0.95
0.955
0.96
0.965
0.97
0.975
0.98
0.985
0.99
0.995
1
1.005
1.01
1.015
1.02
1.025
1.03
1.035
1.04
1.045
1.05
1.055
1.06
1.065
1.07
1.075
1.08
1.085
1.09
1.095
1.1
1.105
1.11
1.115
1.12
1.125
1.13
1.135
1.14
1.145
1.15
1.155
1.16
1.165
1.17
1.175
1.18
1.185
1.19
1.195
1.2
1.205
1.21
1.215
1.22
1.225
1.23
1.235
1.24
1.245
1.25
1.255
1.26
1.265
1.27
1.275
1.28
Y_COORDINATES 257 float
0
0.005
0.01
0.015
0.02
0.025
0.03
0.035
0.04
0.045
0.05
0.055
0.06
0.065
0.07
0.075
0.08
0.085
0.09
0.095
0.1
0.105
0.11
0.115
0.12
0.125
0.13
0.135
0.14
0.145
0.15
0.155
0.16
0.165
0.17
0.175
0.18
0.185
0.19
0.195
0.2
0.205
0.21
0.215
0.22
0.225
0.23
0.235
0.24
0.245
0.25
0.255
0.26
0.265
0.27
0.275
0.28
0.285
0.29
0.295
0.3
0.305
0.31
0.315
0.32
0.325
0.33
0.335
0.34
0.345
0.35
0.355
0.36
0.365
0.37
0.375
0.38
0.385
0.39
0.395
0.4
0.405
0.41
0.415
0.42
0.425
0.43
0.435
0.44
0.445
0.45
0.455
0.46
0.465
0.47
0.475
0.48
0.485
0.49
0.495
0.5
0.505
0.51
0.515
0.52
0.525
0.53
0.535
0.54
0.545
0.55
0.555
0.56
0.565
0.57
0.575
0.58
0.585
0.59
0.595
0.6
0.605
0.61
0.615
0.62
0.625
0.63
0.635
0.64
0.645
0.65
0.655
0.66
0.665
0.67
0.675
0.68
0.685
0.69
0.695
0.7
0.705
0.71
0.715
0.72
0.725
0.73
0.735
0.74
0.745
0.75
0.755
0.76
0.765
0.77
0.775
0.78
0.785
0.79
0.795
0.8
0.805
0.81
0.815
0.82
0.825
0.83
0.835
0.84
0.845
0.85
0.855
0.86
0.865
0.87
0.875
0.88
0.885
0.89
0.895
0.9
0.905
0.91
0.915
0.92
0.925
0.93
0.935
0.94
0.945
0.95
0.955
0.96
0.965
0.97
0.975
0.98
0.985
0.99
0.995
1
1.005
1.01
1.015
1.02
1.025
1.03
1.035
1.04
1.045
1.05
1.055
1.06
1.065
1.07
1.075
1.08
1.085
1.09
1.095
1.1
1.105
1.11
1.115
1.12
1.125
1.13
1.135
1.14
1.145
1.15
1.155
1.16
1.165
1.17
1.175
1.18
1.185
1.19
1.195
1.2
1.205
1.21
1.215
1.22
1.225
1.23
1.235
1.24
1.245
1.25
1.255
1.26
1.265
1.27
1.275
1.28
Z_COORDINATES 1 float
0
CELL_DATA 65536
SCALARS H float 1
LOOKUP_TABLE default
101.005
101.006
101.008
101.009
101.011
101.011
101.011
101.009
101.006
100.999
100.989
100.976
100.959
100.938
100.912
100.882
100.847
100.809
100.767
100.721
100.673
100.622
100.569
100.515
100.46
100.405
100.35
100.296
100.243
100.192
100.143
100.096
100.053
100.013
99.9766
99.9444
99.9165
99.8932
99.8745
99.8607
99.8516
99.8473
99.8475
99.852
99.8604
99.8723
99.8872
99.9046
99.9238
99.9444
99.9658
99.9876
100.009
100.03
100.051
100.07
100.089
100.106
100.123
100.138
100.153
100.167
100.181
100.194
100.207
100.22
100.233
100.246
100.259
100.272
100.286
100.3
100.314
100.329
100.344
100.359
100.374
100.39
100.406
100.423
100.439
100.456
100.472
100.488
100.504
100.52
100.534
100.549
100.562
100.574
100.585
100.594
100.603
100.609
100.614
100.618
100.619
100.619
100.617
100.614
100.609
100.602
100.594
100.584
100.573
100.561
100.548
100.535
100.521
100.506
100.492
100.477
100.462
100.448
100.434
100.421
100.409
100.398
100.388
100.38
100.373
100.368
100.364
100.362
100.362
100.364
100.368
100.373
100.381
100.39
100.401
100.414
100.429
100.445
100.462
100.48
100.499
100.519
100.54
100.56
100.581
100.602
100.622
100.642
100.661
100.679
100.696
100.712
100.727
100.74
100.752
100.762
100.77
100.777
100.782
100.786
100.789
100.79
100.79
100.789
100.788
100.785
100.782
100.779
100.775
100.771
100.767
100.763
100.76
100.756
100.754
100.751
100.75
100.748
100.747
100.747
100.747
100.748
100.75
100.751
100.753
100.756
100.758
100.761
100.764
100.767
100.771
100.774
100.777
100.78
100.783
100.786
100.788
100.79
100.792
100.793
100.794
100.795
100.796
100.795
100.795
100.794
100.793
100.791
100.789
100.786
100.783
100.78
100.776
100.772
100.768
100.764
100.759
100.754
100.749
100.744
100.739
100.733
100.728
100.723
100.717
100.712
100.707
100.703
100.698
100.694
100.69
100.686
100.682
100.679
100.676
100.674
100.672
100.67
100.669
100.668
100.667
100.667
100.667
100.667
100.667
100.668
100.668
100.669
100.67
100.671
100.672
100.673
100.674
100.675
100.676
100.677
100.678
100.678
100.678
100.679
101.004
101.005
101.006
101.008
101.009
101.009
101.008
101.006
101.001
100.994
100.984
100.97
100.953
100.931
100.905
100.875
100.841
100.803
100.761
100.717
100.669
100.619
100.567
100.514
100.46
100.405
100.351
100.298
100.246
100.195
100.147
100.101
100.058
100.019
99.9831
99.9514
99.9239
99.9009
99.8825
99.8687
99.8596
99.8551
99.8549
99.8588
99.8665
99.8776
99.8915
99.9079
99.9261
99.9457
99.9661
99.987
100.008
100.028
100.048
100.068
100.086
100.103
100.12
100.136
100.151
100.165
100.179
100.193
100.206
100.219
100.232
100.245
100.258
100.272
100.286
100.3
100.314
100.328
100.343
100.359
100.374
100.39
100.406
100.423
100.439
100.456
100.472
100.488
100.504
100.519
100.534
100.548
100.561
100.574
100.584
100.594
100.602
100.609
100.614
100.617
100.619
100.619
100.617
100.614
100.608
100.602
100.593
100.584
100.573
100.561
100.549
100.535
100.521
100.507
100.492
100.477
100.463
100.449
100.435
100.422
100.41
100.4
100.39
100.381
100.375
100.369
100.366
100.364
100.364
100.366
100.37
100.375
100.383
100.392
100.404
100.416
100.431
100.447
100.464
100.482
100.501
100.521
100.541
100.562
100.582
100.603
100.623
100.643
100.662
100.68
100.697
100.712
100.727
100.74
100.752
100.762
100.77
100.777
100.782
100.786
100.789
100.79
100.79
100.789
100.788
100.785
100.782
100.779
100.775
100.771
100.767
100.764
100.76
100.757
100.754
100.752
100.75
100.749
100.748
100.748
100.748
100.749
100.75
100.752
100.754
100.756
100.759
100.762
100.765
100.768
100.771
100.774
100.777
100.78
100.783
100.786
100.788
100.79
100.792
100.794
100.795
100.795
100.796
100.796
100.795
100.794
100.793
100.791
100.789
100.786
100.783
100.78
100.776
100.772
100.768
100.764
100.759
100.754
100.749
100.744
100.739
100.733
100.728
100.723
100.717
100.712
100.707
100.703
100.698
100.694
100.69
100.686
100.682
100.679
100.676
100.674
100.672
100.67
100.669
100.668
100.667
100.667
100.667
100.667
100.667
100.668
100.668
100.669
100.67
100.671
100.672
100.673
100.674
100.675
100.676
100.677
100.678
100.678
100.678
100.679
101.003
101.003
101.004
101.005
101.005
101.004
101.003
100.999
100.994
100.986
100.975
100.96
100.942
100.921
100.895
100.865
100.831
100.794
100.753
100.709
100.663
100.614
100.563
100.511
100.459
100.406
100.353
100.301
100.25
100.201
100.153
100.109
100.067
100.029
99.9937
99.9627
99.9359
99.9133
99.8952
99.8815
99.8722
99.8672
99.8663
99.8693
99.8758
99.8855
99.8979
99.9127
99.9293
99.9472
99.9662
99.9857
100.005
100.025
100.044
100.063
100.082
100.099
100.116
100.132
100.147
100.162
100.177
100.191
100.204
100.218
100.231
100.244
100.258
100.271
100.285
100.299
100.314
100.328
100.343
100.359
100.374
100.39
100.406
100.423
100.439
100.455
100.472
100.488
100.504
100.519
100.534
100.548
100.561
100.573
100.584
100.594
100.602
100.608
100.613
100.617
100.618
100.618
100.617
100.613
100.608
100.601
100.593
100.584
100.573
100.561
100.549
100.535
100.522
100.507
100.493
100.478
100.464
100.45
100.437
100.424
100.412
100.401
100.392
100.384
100.377
100.372
100.368
100.367
100.367
100.369
100.373
100.379
100.386
100.396
100.407
100.42
100.434
100.45
100.466
100.485
100.503
100.523
100.543
100.563
100.584
100.604
100.624
100.644
100.663
100.68
100.697
100.713
100.727
100.74
100.751
100.761
100.77
100.777
100.782
100.786
100.789
100.79
100.79
100.79
100.788
100.786
100.783
100.779
100.776
100.772
100.768
100.765
100.761
100.758
100.755
100.753
100.751
100.75
100.749
100.749
100.749
100.75
100.751
100.753
100.755
100.757
100.76
100.763
100.766
100.769
100.772
100.775
100.778
100.781
100.784
100.786
100.789
100.791
100.793
100.794
100.795
100.796
100.796
100.796
100.795
100.794
100.793
100.791
100.789
100.786
100.783
100.78
100.777
100.773
100.768
100.764
100.759
100.754
100.749
100.744
100.739
100.733
100.728
100.723
100.717
100.712
100.707
100.703
100.698
100.694
100.69
100.686
100.682
100.679
100.676
100.674
100.672
100.67
100.669
100.668
100.667
100.667
100.667
100.667
100.667
100.668
100.668
100.669
100.67
100.671
100.672
100.673
100.674
100.675
100.676
100.677
100.678
100.678
100.678
100.679
101
101
101
101
100.999
100.998
100.995
100.99
100.983
100.974
100.962
100.946
100.928
100.906
100.88
100.851
100.818
100.781
100.742
100.699
100.654
100.607
100.558
100.508
100.457
100.406
100.355
100.305
100.256
100.208
100.163
100.12
100.08
100.042
100.009
99.9789
99.9529
99.931
99.9132
99.8995
99.8899
99.8842
99.8824
99.884
99.8889
99.8967
99.907
99.9196
99.9339
99.9497
99.9667
99.9844
100.003
100.021
100.04
100.058
100.076
100.093
100.11
100.127
100.143
100.158
100.173
100.187
100.202
100.216
100.229
100.243
100.257
100.271
100.285
100.299
100.313
100.328
100.343
100.359
100.374
100.39
100.406
100.422
100.439
100.455
100.471
100.488
100.503
100.519
100.533
100.547
100.56
100.572
100.583
100.593
100.601
100.608
100.613
100.616
100.618
100.618
100.616
100.613
100.608
100.601
100.593
100.584
100.573
100.562
100.549
100.536
100.522
100.508
100.494
100.48
100.465
100.452
100.439
100.426
100.415
100.404
100.395
100.387
100.38
100.376
100.372
100.371
100.371
100.373
100.377
100.383
100.391
100.4
100.411
100.424
100.438
100.454
100.471
100.488
100.507
100.526
100.546
100.566
100.586
100.606
100.626
100.645
100.664
100.681
100.698
100.713
100.727
100.74
100.751
100.761
100.77
100.776
100.782
100.786
100.788
100.79
100.79
100.79
100.788
100.786
100.783
100.78
100.777
100.773
100.769
100.766
100.763
100.76
100.757
100.755
100.753
100.752
100.751
100.751
100.751
100.752
100.753
100.754
100.756
100.759
100.761
100.764
100.767
100.77
100.773
100.776
100.779
100.782
100.785
100.787
100.79
100.792
100.793
100.795
100.796
100.796
100.796
100.796
100.796
100.795
100.793
100.791
100.789
100.787
100.784
100.78
100.777
100.773
100.768
100.764
100.759
100.754
100.749
100.744
100.739
100.733
100.728
100.723
100.717
100.712
100.707
100.703
100.698
100.694
100.69
100.686
100.682
100.679
100.677
100.674
100.672
100.67
100.669
100.668
100.667
100.667
100.667
100.667
100.667
100.668
100.668
100.669
100.67
100.671
100.672
100.673
100.674
100.675
100.676
100.677
100.677
100.678
100.678
100.678
100.996
100.996
100.995
100.994
100.992
100.989
100.984
100.978
100.97
100.959
100.945
100.929
100.91
100.887
100.862
100.833
100.8
100.765
100.727
100.687
100.644
100.599
100.552
100.504
100.456
100.407
100.359
100.311
100.264
100.218
100.175
100.134
100.096
100.06
100.028
99.9995
99.9745
99.9533
99.9358
99.9221
99.912
99.9055
99.9023
99.9023
99.9051
99.9106
99.9184
99.9283
99.94
99.9532
99.9677
99.9833
99.9996
100.017
100.034
100.051
100.069
100.086
100.103
100.12
100.136
100.152
100.168
100.183
100.198
100.213
100.227
100.241
100.255
100.27
100.284
100.298
100.313
100.328
100.343
100.358
100.374
100.39
100.406
100.422
100.439
100.455
100.471
100.487
100.503
100.518
100.532
100.546
100.559
100.571
100.582
100.592
100.6
100.606
100.612
100.615
100.617
100.617
100.615
100.612
100.607
100.601
100.593
100.584
100.573
100.562
100.55
100.537
100.523
100.509
100.495
100.481
100.467
100.454
100.441
100.429
100.418
100.408
100.399
100.391
100.385
100.38
100.377
100.376
100.377
100.379
100.383
100.389
100.397
100.406
100.417
100.43
100.444
100.459
100.476
100.493
100.512
100.531
100.55
100.57
100.59
100.609
100.628
100.647
100.665
100.682
100.699
100.714
100.728
100.74
100.751
100.761
100.769
100.776
100.781
100.785
100.788
100.79
100.79
100.79
100.788
100.786
100.784
100.781
100.778
100.774
100.771
100.767
100.764
100.761
100.759
100.757
100.755
100.754
100.753
100.753
100.753
100.754
100.755
100.756
100.758
100.76
100.763
100.766
100.769
100.771
100.774
100.777
100.78
100.783
100.786
100.788
100.791
100.792
100.794
100.795
100.796
100.797
100.797
100.797
100.796
100.795
100.794
100.792
100.79
100.787
100.784
100.781
100.777
100.773
100.769
100.764
100.759
100.754
100.749
100.744
100.739
100.733
100.728
100.723
100.718
100.712
100.707
100.703
100.698
100.694
100.69
100.686
100.683
100.679
100.677
100.674
100.672
100.67
100.669
100.668
100.667
100.667
100.667
100.667
100.667
100.668
100.668
100.669
100.67
100.671
100.672
100.673
100.674
100.675
100.676
100.677
100.677
100.678
100.678
100.678
100.991
100.99
100.989
100.986
100.983
100.978
100.972
100.963
100.953
100.941
100.926
100.908
100.888
100.865
100.84
100.811
100.78
100.746
100.71
100.672
100.631
100.588
100.545
100.5
100.454
100.408
100.362
100.317
100.273
100.23
100.19
100.151
100.115
100.082
100.051
100.024
100
99.9798
99.9627
99.9488
99.9381
99.9305
99.9258
99.9237
99.9242
99.927
99.932
99.9389
99.9477
99.958
99.9698
99.9829
99.9971
100.012
100.028
100.045
100.061
100.078
100.095
100.112
100.129
100.146
100.162
100.178
100.193
100.209
100.224
100.238
100.253
100.268
100.282
100.297
100.312
100.327
100.342
100.358
100.374
100.39
100.406
100.422
100.438
100.454
100.47
100.486
100.502
100.517
100.532
100.545
100.558
100.57
100.581
100.59
100.598
100.605
100.61
100.614
100.616
100.616
100.614
100.611
100.606
100.6
100.592
100.583
100.573
100.562
100.55
100.537
100.524
100.51
100.497
100.483
100.47
100.457
100.444
100.432
100.422
100.412
100.403
100.396
100.39
100.386
100.383
100.382
100.383
100.386
100.39
100.396
100.404
100.413
100.424
100.437
100.451
100.466
100.482
100.499
100.517
100.536
100.555
100.574
100.593
100.612
100.631
100.649
100.667
100.684
100.7
100.714
100.728
100.74
100.751
100.761
100.769
100.775
100.781
100.785
100.788
100.789
100.79
100.79
100.789
100.787
100.785
100.782
100.779
100.776
100.772
100.769
100.766
100.764
100.761
100.759
100.757
100.756
100.755
100.755
100.755
100.756
100.757
100.759
100.76
100.763
100.765
100.768
100.77
100.773
100.776
100.779
100.782
100.785
100.787
100.79
100.792
100.794
100.795
100.796
100.797
100.798
100.798
100.798
100.797
100.796
100.794
100.792
100.79
100.787
100.784
100.781
100.777
100.773
100.769
100.764
100.76
100.755
100.749
100.744
100.739
100.734
100.728
100.723
100.718
100.713
100.708
100.703
100.698
100.694
100.69
100.686
100.683
100.68
100.677
100.674
100.672
100.671
100.669
100.668
100.667
100.667
100.667
100.667
100.667
100.668
100.668
100.669
100.67
100.671
100.672
100.673
100.674
100.675
100.676
100.677
100.677
100.678
100.678
100.678
100.984
100.983
100.98
100.977
100.972
100.965
100.957
100.946
100.934
100.92
100.904
100.885
100.864
100.841
100.815
100.787
100.757
100.725
100.691
100.654
100.616
100.577
100.536
100.494
100.452
100.409
100.367
100.325
100.284
100.244
100.207
100.171
100.137
100.106
100.078
100.052
100.03
100.01
99.9931
99.979
99.9675
99.9586
99.9521
99.9479
99.9458
99.9458
99.9477
99.9515
99.9571
99.9644
99.9733
99.9837
99.9956
100.009
100.023
100.038
100.054
100.07
100.087
100.104
100.121
100.138
100.155
100.172
100.188
100.204
100.219
100.235
100.25
100.265
100.281
100.296
100.311
100.326
100.342
100.357
100.373
100.389
100.405
100.421
100.437
100.454
100.47
100.485
100.501
100.516
100.53
100.544
100.557
100.569
100.579
100.589
100.597
100.604
100.609
100.612
100.614
100.614
100.613
100.61
100.605
100.599
100.592
100.583
100.573
100.562
100.55
100.538
100.525
100.512
100.499
100.485
100.472
100.46
100.448
100.436
100.426
100.417
100.409
100.402
100.396
100.393
100.39
100.39
100.391
100.394
100.398
100.404
100.412
100.422
100.433
100.445
100.459
100.474
100.49
100.506
100.524
100.542
100.56
100.579
100.598
100.616
100.634
100.652
100.669
100.685
100.701
100.715
100.728
100.74
100.751
100.76
100.768
100.775
100.78
100.784
100.787
100.789
100.79
100.79
100.789
100.788
100.786
100.783
100.78
100.777
100.774
100.771
100.769
100.766
100.764
100.762
100.76
100.759
100.758
100.758
100.758
100.759
100.76
100.761
100.763
100.765
100.767
100.77
100.773
100.775
100.778
100.781
100.784
100.786
100.789
100.791
100.793
100.795
100.796
100.798
100.798
100.799
100.799
100.799
100.798
100.797
100.795
100.793
100.791
100.788
100.785
100.782
100.778
100.774
100.769
100.765
100.76
100.755
100.75
100.745
100.739
100.734
100.729
100.723
100.718
100.713
100.708
100.703
100.699
100.694
100.69
100.687
100.683
100.68
100.677
100.675
100.673
100.671
100.67
100.668
100.668
100.667
100.667
100.667
100.667
100.668
100.669
100.669
100.67
100.671
100.672
100.673
100.674
100.675
100.676
100.677
100.677
100.678
100.678
100.678
100.976
100.974
100.97
100.965
100.958
100.95
100.939
100.927
100.913
100.897
100.879
100.859
100.837
100.814
100.788
100.761
100.732
100.702
100.669
100.635
100.6
100.564
100.526
100.488
100.449
100.41
100.372
100.334
100.296
100.26
100.226
100.193
100.162
100.134
100.107
100.084
100.062
100.043
100.026
100.012
99.9996
99.9893
99.9809
99.9743
99.9696
99.9666
99.9654
99.966
99.9683
99.9725
99.9784
99.9861
99.9954
100.006
100.019
100.032
100.047
100.063
100.079
100.096
100.113
100.13
100.147
100.164
100.181
100.198
100.214
100.23
100.246
100.262
100.278
100.294
100.309
100.325
100.34
100.356
100.372
100.388
100.404
100.421
100.437
100.453
100.469
100.484
100.5
100.515
100.529
100.543
100.555
100.567
100.578
100.587
100.595
100.602
100.607
100.61
100.612
100.612
100.611
100.608
100.604
100.598
100.591
100.582
100.573
100.562
100.551
100.539
100.526
100.514
100.501
100.488
100.475
100.463
100.452
100.441
100.431
100.422
100.415
100.408
100.403
100.4
100.398
100.398
100.4
100.403
100.407
100.414
100.422
100.431
100.442
100.454
100.468
100.482
100.498
100.514
100.531
100.549
100.566
100.584
100.602
100.62
100.638
100.655
100.671
100.687
100.702
100.716
100.728
100.74
100.75
100.759
100.767
100.774
100.779
100.783
100.787
100.789
100.79
100.79
100.789
100.788
100.786
100.784
100.782
100.779
100.777
100.774
100.771
100.769
100.767
100.765
100.763
100.762
100.762
100.761
100.762
100.762
100.763
100.764
100.766
100.768
100.77
100.773
100.775
100.778
100.781
100.783
100.786
100.788
100.791
100.793
100.795
100.797
100.798
100.799
100.8
100.8
100.8
100.8
100.799
100.798
100.796
100.794
100.792
100.789
100.786
100.782
100.778
100.774
100.77
100.765
100.761
100.756
100.75
100.745
100.74
100.735
100.729
100.724
100.719
100.714
100.709
100.704
100.699
100.695
100.691
100.687
100.684
100.681
100.678
100.675
100.673
100.672
100.67
100.669
100.668
100.668
100.668
100.668
100.668
100.668
100.669
100.67
100.671
100.672
100.673
100.674
100.675
100.676
100.676
100.677
100.678
100.678
100.678
100.678
100.965
100.962
100.958
100.951
100.943
100.932
100.92
100.906
100.89
100.872
100.852
100.831
100.809
100.785
100.76
100.733
100.706
100.677
100.646
100.615
100.583
100.55
100.516
100.481
100.447
100.412
100.377
100.343
100.31
100.277
100.246
100.217
100.189
100.163
100.139
100.117
100.097
100.079
100.062
100.047
100.034
100.022
100.011
100.003
99.9951
99.9892
99.985
99.9824
99.9816
99.9826
99.9855
99.9903
99.997
100.006
100.016
100.028
100.041
100.055
100.071
100.087
100.104
100.121
100.139
100.156
100.173
100.191
100.208
100.225
100.242
100.258
100.274
100.291
100.307
100.323
100.339
100.355
100.371
100.387
100.403
100.419
100.436
100.452
100.468
100.483
100.498
100.513
100.527
100.541
100.553
100.565
100.576
100.585
100.593
100.599
100.604
100.608
100.61
100.61
100.609
100.607
100.602
100.597
100.59
100.582
100.572
100.562
100.551
100.54
100.528
100.515
100.503
100.491
100.479
100.467
100.456
100.446
100.437
100.428
100.421
100.416
100.411
100.408
100.407
100.407
100.409
100.413
100.418
100.424
100.432
100.442
100.452
100.465
100.478
100.492
100.507
100.523
100.539
100.556
100.573
100.59
100.608
100.625
100.642
100.658
100.674
100.689
100.703
100.716
100.728
100.74
100.75
100.759
100.766
100.773
100.778
100.782
100.786
100.788
100.789
100.79
100.79
100.789
100.787
100.786
100.784
100.781
100.779
100.776
100.774
100.772
100.77
100.768
100.767
100.766
100.765
100.765
100.765
100.766
100.767
100.768
100.77
100.771
100.773
100.776
100.778
100.781
100.783
100.786
100.788
100.791
100.793
100.795
100.797
100.799
100.8
100.801
100.801
100.802
100.802
100.801
100.8
100.799
100.797
100.795
100.793
100.79
100.787
100.783
100.779
100.775
100.771
100.766
100.761
100.756
100.751
100.746
100.741
100.735
100.73
100.725
100.72
100.714
100.71
100.705
100.7
100.696
100.692
100.688
100.685
100.682
100.679
100.676
100.674
100.673
100.671
100.67
100.669
100.669
100.669
100.669
100.669
100.669
100.67
100.671
100.671
100.672
100.673
100.674
100.675
100.676
100.677
100.678
100.678
100.679
100.679
100.679
100.952
100.949
100.943
100.935
100.925
100.913
100.898
100.882
100.864
100.845
100.824
100.802
100.779
100.755
100.73
100.704
100.678
100.65
100.622
100.594
100.565
100.535
100.505
100.474
100.444
100.413
100.383
100.353
100.324
100.296
100.269
100.243
100.218
100.195
100.173
100.153
100.134
100.116
100.099
100.084
100.069
100.056
100.043
100.032
100.022
100.014
100.006
100.001
99.9969
99.9949
99.9948
99.9968
100.001
100.007
100.015
100.025
100.036
100.049
100.064
100.079
100.095
100.112
100.13
100.147
100.165
100.183
100.201
100.218
100.236
100.253
100.27
100.287
100.303
100.32
100.336
100.353
100.369
100.385
100.402
100.418
100.434
100.45
100.466
100.482
100.497
100.511
100.525
100.539
100.551
100.563
100.573
100.582
100.59
100.597
100.602
100.606
100.608
100.608
100.607
100.605
100.601
100.595
100.589
100.581
100.572
100.562
100.552
100.541
100.529
100.517
100.505
100.494
100.482
100.471
100.461
100.451
100.443
100.435
100.429
100.424
100.42
100.418
100.417
100.418
100.42
100.424
100.429
100.435
100.444
100.453
100.464
100.475
100.488
100.502
100.517
100.532
100.548
100.564
100.58
100.597
100.613
100.63
100.646
100.661
100.676
100.691
100.704
100.717
100.729
100.739
100.749
100.758
100.765
100.772
100.777
100.781
100.785
100.787
100.789
100.79
100.79
100.789
100.788
100.787
100.785
100.783
100.781
100.779
100.777
100.775
100.774
100.772
100.771
100.77
100.769
100.769
100.769
100.77
100.771
100.772
100.773
100.775
100.777
100.779
100.782
100.784
100.786
100.789
100.791
100.793
100.796
100.797
100.799
100.801
100.802
100.803
100.803
100.803
100.803
100.803
100.802
100.8
100.799
100.797
100.794
100.791
100.788
100.784
100.781
100.776
100.772
100.767
100.763
100.757
100.752
100.747
100.742
100.736
100.731
100.726
100.721
100.716
100.711
100.706
100.701
100.697
100.693
100.689
100.686
100.683
100.68
100.678
100.676
100.674
100.672
100.671
100.67
100.67
100.67
100.67
100.67
100.67
100.671
100.672
100.672
100.673
100.674
100.675
100.676
100.677
100.678
100.678
100.679
100.679
100.679
100.68
100.936
100.932
100.926
100.917
100.905
100.891
100.875
100.857
100.838
100.817
100.795
100.772
100.748
100.724
100.699
100.674
100.649
100.624
100.598
100.572
100.546
100.52
100.493
100.467
100.441
100.415
100.389
100.364
100.339
100.315
100.292
100.27
100.248
100.228
100.208
100.19
100.172
100.154
100.137
100.121
100.106
100.091
100.076
100.063
100.051
100.039
100.029
100.021
100.014
100.009
100.007
100.006
100.007
100.011
100.016
100.024
100.033
100.045
100.058
100.072
100.087
100.103
100.12
100.138
100.156
100.174
100.192
100.21
100.229
100.246
100.264
100.282
100.299
100.316
100.333
100.35
100.366
100.383
100.4
100.416
100.432
100.448
100.464
100.48
100.495
100.509
100.523
100.536
100.549
100.56
100.57
100.579
100.587
100.594
100.599
100.603
100.605
100.605
100.605
100.602
100.599
100.594
100.587
100.58
100.571
100.562
100.552
100.541
100.53
100.519
100.508
100.497
100.486
100.476
100.466
100.457
100.449
100.442
100.437
100.432
100.429
100.427
100.427
100.428
100.431
100.435
100.441
100.447
100.456
100.465
100.476
100.487
100.5
100.513
100.527
100.542
100.557
100.572
100.588
100.604
100.619
100.635
100.65
100.665
100.679
100.692
100.705
100.717
100.729
100.739
100.748
100.756
100.764
100.77
100.776
100.78
100.784
100.786
100.788
100.789
100.79
100.79
100.789
100.788
100.787
100.786
100.784
100.782
100.781
100.779
100.777
100.776
100.775
100.774
100.774
100.774
100.774
100.774
100.775
100.776
100.778
100.779
100.781
100.783
100.785
100.787
100.79
100.792
100.794
100.796
100.798
100.8
100.802
100.803
100.804
100.805
100.805
100.806
100.805
100.805
100.804
100.802
100.8
100.798
100.796
100.793
100.79
100.786
100.782
100.778
100.773
100.769
100.764
100.759
100.754
100.749
100.743
100.738
100.733
100.727
100.722
100.717
100.712
100.707
100.703
100.699
100.695
100.691
100.687
100.684
100.682
100.679
100.677
100.675
100.674
100.673
100.672
100.671
100.671
100.671
100.671
100.671
100.672
100.673
100.673
100.674
100.675
100.676
100.677
100.678
100.678
100.679
100.68
100.68
100.68
100.68
100.918
100.913
100.906
100.896
100.883
100.868
100.85
100.831
100.81
100.788
100.765
100.741
100.717
100.693
100.669
100.645
100.621
100.597
100.573
100.55
100.527
100.504
100.482
100.46
100.438
100.417
100.395
100.375
100.355
100.335
100.316
100.297
100.279
100.261
100.244
100.227
100.21
100.193
100.176
100.159
100.142
100.126
100.11
100.095
100.08
100.066
100.054
100.043
100.034
100.026
100.021
100.017
100.016
100.017
100.02
100.025
100.033
100.042
100.053
100.066
100.08
100.095
100.112
100.129
100.147
100.165
100.183
100.202
100.22
100.239
100.257
100.275
100.293
100.311
100.328
100.346
100.363
100.38
100.397
100.413
100.43
100.446
100.462
100.477
100.492
100.507
100.52
100.533
100.546
100.557
100.567
100.576
100.584
100.591
100.596
100.599
100.602
100.602
100.602
100.6
100.596
100.592
100.586
100.579
100.571
100.562
100.552
100.542
100.532
100.521
100.51
100.5
100.49
100.48
100.471
100.463
100.456
100.45
100.445
100.441
100.439
100.438
100.438
100.44
100.443
100.447
100.453
100.46
100.468
100.478
100.488
100.499
100.512
100.525
100.538
100.552
100.566
100.581
100.596
100.611
100.625
100.64
100.654
100.668
100.681
100.694
100.706
100.718
100.728
100.738
100.747
100.755
100.762
100.769
100.774
100.778
100.782
100.785
100.787
100.789
100.79
100.79
100.79
100.79
100.789
100.788
100.787
100.785
100.784
100.783
100.781
100.78
100.78
100.779
100.779
100.778
100.779
100.779
100.78
100.781
100.782
100.784
100.785
100.787
100.789
100.791
100.793
100.796
100.798
100.8
100.802
100.803
100.805
100.806
100.807
100.808
100.808
100.808
100.808
100.807
100.806
100.804
100.803
100.8
100.798
100.795
100.791
100.788
100.784
100.78
100.775
100.771
100.766
100.761
100.756
100.75
100.745
100.74
100.734
100.729
100.724
100.719
100.714
100.709
100.705
100.7
100.696
100.693
100.689
100.686
100.683
100.681
100.679
100.677
100.675
100.674
100.673
100.673
100.672
100.672
100.672
100.673
100.673
100.674
100.675
100.675
100.676
100.677
100.678
100.679
100.679
100.68
100.68
100.681
100.681
100.681
100.897
100.892
100.884
100.873
100.859
100.842
100.823
100.803
100.781
100.758
100.734
100.71
100.686
100.662
100.638
100.615
100.592
100.57
100.549
100.529
100.509
100.49
100.471
100.453
100.436
100.419
100.402
100.386
100.371
100.355
100.34
100.325
100.31
100.295
100.279
100.264
100.247
100.231
100.214
100.196
100.179
100.161
100.144
100.127
100.11
100.094
100.08
100.067
100.055
100.045
100.037
100.031
100.027
100.026
100.026
100.029
100.034
100.042
100.051
100.062
100.074
100.088
100.104
100.12
100.138
100.155
100.174
100.193
100.211
100.23
100.249
100.268
100.286
100.305
100.323
100.341
100.358
100.376
100.393
100.41
100.427
100.443
100.459
100.474
100.489
100.503
100.517
100.53
100.542
100.553
100.563
100.572
100.58
100.587
100.592
100.596
100.598
100.599
100.599
100.597
100.594
100.589
100.584
100.577
100.569
100.561
100.552
100.543
100.533
100.523
100.513
100.503
100.494
100.485
100.477
100.47
100.463
100.458
100.454
100.451
100.449
100.449
100.45
100.452
100.455
100.46
100.466
100.473
100.482
100.491
100.501
100.512
100.524
100.536
100.549
100.563
100.576
100.59
100.604
100.618
100.632
100.645
100.659
100.672
100.684
100.696
100.707
100.718
100.728
100.737
100.746
100.754
100.761
100.767
100.772
100.777
100.781
100.784
100.786
100.788
100.79
100.791
100.791
100.791
100.791
100.79
100.789
100.788
100.788
100.787
100.786
100.785
100.784
100.784
100.783
100.783
100.784
100.784
100.785
100.786
100.787
100.788
100.79
100.792
100.794
100.796
100.798
100.8
100.802
100.803
100.805
100.807
100.808
100.809
100.81
100.811
100.811
100.811
100.811
100.81
100.809
100.807
100.805
100.803
100.8
100.797
100.794
100.79
100.786
100.782
100.777
100.773
100.768
100.763
100.758
100.752
100.747
100.742
100.736
100.731
100.726
100.721
100.716
100.711
100.707
100.702
100.698
100.695
100.691
100.688
100.685
100.683
100.68
100.679
100.677
100.676
100.675
100.674
100.674
100.674
100.674
100.674
100.675
100.675
100.676
100.677
100.677
100.678
100.679
100.68
100.68
100.681
100.681
100.682
100.682
100.682
100.872
100.867
100.859
100.847
100.832
100.815
100.795
100.774
100.751
100.727
100.703
100.679
100.655
100.631
100.608
100.586
100.565
100.545
100.526
100.508
100.491
100.475
100.461
100.447
100.434
100.421
100.409
100.398
100.387
100.375
100.364
100.352
100.34
100.328
100.314
100.3
100.284
100.268
100.251
100.233
100.215
100.196
100.178
100.159
100.141
100.124
100.107
100.092
100.078
100.066
100.056
100.048
100.041
100.037
100.036
100.036
100.039
100.044
100.051
100.06
100.07
100.083
100.097
100.112
100.129
100.146
100.164
100.183
100.202
100.221
100.24
100.259
100.278
100.297
100.316
100.335
100.353
100.371
100.388
100.406
100.422
100.439
100.455
100.47
100.485
100.5
100.513
100.526
100.538
100.549
100.559
100.568