# vtk DataFile Version 2.0
HPC Tutorials: Michael Bader, Kaveh Rahnema, Oliver Meister
ASCII
DATASET RECTILINEAR_GRID
DIMENSIONS 257 257 1
X_COORDINATES 257 float
0
0.005
0.01
0.015
0.02
0.025
0.03
0.035
0.04
0.045
0.05
0.055
0.06
0.065
0.07
0.075
0.08
0.085
0.09
0.095
0.1
0.105
0.11
0.115
0.12
0.125
0.13
0.135
0.14
0.145
0.15
0.155
0.16
0.165
0.17
0.175
0.18
0.185
0.19
0.195
0.2
0.205
0.21
0.215
0.22
0.225
0.23
0.235
0.24
0.245
0.25
0.255
0.26
0.265
0.27
0.275
0.28
0.285
0.29
0.295
0.3
0.305
0.31
0.315
0.32
0.325
0.33
0.335
0.34
0.345
0.35
0.355
0.36
0.365
0.37
0.375
0.38
0.385
0.39
0.395
0.4
0.405
0.41
0.415
0.42
0.425
0.43
0.435
0.44
0.445
0.45
0.455
0.46
0.465
0.47
0.475
0.48
0.485
0.49
0.495
0.5
0.505
0.51
0.515
0.52
0.525
0.53
0.535
0.54
0.545
0.55
0.555
0.56
0.565
0.57
0.575
0.58
0.585
0.59
0.595
0.6
0.605
0.61
0.615
0.62
0.625
0.63
0.635
0.64
0.645
0.65
0.655
0.66
0.665
0.67
0.675
0.68
0.685
0.69
0.695
0.7
0.705
0.71
0.715
0.72
0.725
0.73
0.735
0.74
0.745
0.75
0.755
0.76
0.765
0.77
0.775
0.78
0.785
0.79
0.795
0.8
0.805
0.81
0.815
0.82
0.825
0.83
0.835
0.84
0.845
0.85
0.855
0.86
0.865
0.87
0.875
0.88
0.885
0.89
0.895
0.9
0.905
0.91
0.915
0.92
0.925
0.93
0.935
0.94
0.945
0.95
0.955
0.96
0.965
0.97
0.975
0.98
0.985
0.99
0.995
1
1.005
1.01
1.015
1.02
1.025
1.03
1.035
1.04
1.045
1.05
1.055
1.06
1.065
1.07
1.075
1.08
1.085
1.09
1.095
1.1
1.105
1.11
1.115
1.12
1.125
1.13
1.135
1.14
1.145
1.15
1.155
1.16
1.165
1.17
1.175
1.18
1.185
1.19
1.195
1.2
1.205
1.21
1.215
1.22
1.225
1.23
1.235
1.24
1.245
1.25
1.255
1.26
1.265
1.27
1.275
1.28
Y_COORDINATES 257 float
0
0.005
0.01
0.015
0.02
0.025
0.03
0.035
0.04
0.045
0.05
0.055
0.06
0.065
0.07
0.075
0.08
0.085
0.09
0.095
0.1
0.105
0.11
0.115
0.12
0.125
0.13
0.135
0.14
0.145
0.15
0.155
0.16
0.165
0.17
0.175
0.18
0.185
0.19
0.195
0.2
0.205
0.21
0.215
0.22
0.225
0.23
0.235
0.24
0.245
0.25
0.255
0.26
0.265
0.27
0.275
0.28
0.285
0.29
0.295
0.3
0.305
0.31
0.315
0.32
0.325
0.33
0.335
0.34
0.345
0.35
0.355
0.36
0.365
0.37
0.375
0.38
0.385
0.39
0.395
0.4
0.405
0.41
0.415
0.42
0.425
0.43
0.435
0.44
0.445
0.45
0.455
0.46
0.465
0.47
0.475
0.48
0.485
0.49
0.495
0.5
0.505
0.51
0.515
0.52
0.525
0.53
0.535
0.54
0.545
0.55
0.555
0.56
0.565
0.57
0.575
0.58
0.585
0.59
0.595
0.6
0.605
0.61
0.615
0.62
0.625
0.63
0.635
0.64
0.645
0.65
0.655
0.66
0.665
0.67
0.675
0.68
0.685
0.69
0.695
0.7
0.705
0.71
0.715
0.72
0.725
0.73
0.735
0.74
0.745
0.75
0.755
0.76
0.765
0.77
0.775
0.78
0.785
0.79
0.795
0.8
0.805
0.81
0.815
0.82
0.825
0.83
0.835
0.84
0.845
0.85
0.855
0.86
0.865
0.87
0.875
0.88
0.885
0.89
0.895
0.9
0.905
0.91
0.915
0.92
0.925
0.93
0.935
0.94
0.945
0.95
0.955
0.96
0.965
0.97
0.975
0.98
0.985
0.99
0.995
1
1.005
1.01
1.015
1.02
1.025
1.03
1.035
1.04
1.045
1.05
1.055
1.06
1.065
1.07
1.075
1.08
1.085
1.09
1.095
1.1
1.105
1.11
1.115
1.12
1.125
1.13
1.135
1.14
1.145
1.15
1.155
1.16
1.165
1.17
1.175
1.18
1.185
1.19
1.195
1.2
1.205
1.21
1.215
1.22
1.225
1.23
1.235
1.24
1.245
1.25
1.255
1.26
1.265
1.27
1.275
1.28
Z_COORDINATES 1 float
0
CELL_DATA 65536
SCALARS H float 1
LOOKUP_TABLE default
99.9508
99.9511
99.9516
99.9519
99.952
99.9514
99.9503
99.9485
99.9462
99.9439
99.9417
99.9402
99.9395
99.9396
99.9402
99.941
99.9415
99.9414
99.9405
99.9389
99.9366
99.9341
99.9316
99.9293
99.9272
99.9253
99.9235
99.9217
99.9198
99.9179
99.9161
99.9146
99.9135
99.9128
99.9126
99.9128
99.9132
99.9137
99.9143
99.9149
99.9155
99.9163
99.9171
99.9182
99.9194
99.9207
99.9221
99.9236
99.9252
99.9268
99.9285
99.9303
99.9323
99.9344
99.9368
99.9395
99.9425
99.9458
99.9494
99.9533
99.9575
99.9619
99.9664
99.9711
99.9759
99.9807
99.9855
99.9902
99.9949
99.9996
100.004
100.009
100.013
100.018
100.022
100.027
100.031
100.036
100.041
100.046
100.051
100.056
100.062
100.067
100.073
100.079
100.085
100.091
100.096
100.102
100.108
100.114
100.12
100.125
100.131
100.136
100.142
100.148
100.154
100.16
100.166
100.172
100.178
100.185
100.192
100.199
100.207
100.215
100.223
100.231
100.239
100.247
100.256
100.265
100.273
100.282
100.29
100.299
100.307
100.315
100.323
100.331
100.339
100.347
100.355
100.362
100.369
100.376
100.383
100.39
100.397
100.403
100.409
100.415
100.42
100.425
100.43
100.435
100.439
100.443
100.447
100.45
100.453
100.456
100.458
100.461
100.463
100.466
100.469
100.471
100.474
100.478
100.481
100.485
100.49
100.495
100.5
100.505
100.511
100.518
100.524
100.531
100.538
100.545
100.552
100.559
100.566
100.573
100.58
100.587
100.593
100.599
100.604
100.61
100.615
100.619
100.624
100.628
100.631
100.635
100.638
100.641
100.644
100.646
100.649
100.651
100.652
100.654
100.655
100.656
100.657
100.658
100.658
100.658
100.658
100.657
100.657
100.656
100.654
100.653
100.651
100.649
100.646
100.643
100.641
100.638
100.635
100.632
100.629
100.626
100.623
100.62
100.618
100.616
100.615
100.614
100.614
100.615
100.616
100.617
100.62
100.623
100.627
100.632
100.637
100.643
100.649
100.656
100.663
100.67
100.678
100.686
100.694
100.702
100.71
100.718
100.726
100.734
100.741
100.748
100.755
100.761
100.767
100.772
100.777
100.782
100.786
100.789
100.793
100.796
100.798
100.8
100.801
100.803
100.803
100.803
99.9511
99.9515
99.952
99.9525
99.9527
99.9523
99.9513
99.9497
99.9476
99.9454
99.9434
99.9419
99.9412
99.9413
99.9419
99.9426
99.943
99.9428
99.9417
99.94
99.9376
99.935
99.9324
99.93
99.928
99.9261
99.9244
99.9228
99.9211
99.9194
99.9178
99.9166
99.9157
99.9153
99.9153
99.9157
99.9162
99.9168
99.9175
99.9181
99.9188
99.9195
99.9203
99.9213
99.9224
99.9237
99.9252
99.9267
99.9283
99.93
99.9318
99.9338
99.9359
99.9382
99.9408
99.9437
99.9469
99.9505
99.9544
99.9585
99.9629
99.9674
99.9721
99.977
99.9818
99.9867
99.9916
99.9964
100.001
100.006
100.01
100.015
100.019
100.024
100.028
100.033
100.038
100.042
100.047
100.052
100.057
100.063
100.068
100.074
100.079
100.085
100.091
100.097
100.103
100.109
100.114
100.12
100.126
100.131
100.137
100.142
100.148
100.154
100.159
100.165
100.171
100.177
100.184
100.19
100.197
100.204
100.212
100.219
100.227
100.235
100.243
100.252
100.26
100.268
100.277
100.285
100.294
100.302
100.31
100.318
100.326
100.334
100.342
100.35
100.357
100.365
100.372
100.379
100.386
100.393
100.4
100.406
100.412
100.418
100.424
100.429
100.434
100.439
100.443
100.447
100.45
100.454
100.457
100.46
100.462
100.465
100.468
100.47
100.473
100.475
100.478
100.482
100.485
100.489
100.494
100.498
100.504
100.509
100.515
100.521
100.528
100.535
100.541
100.548
100.556
100.563
100.569
100.576
100.583
100.589
100.595
100.601
100.607
100.612
100.617
100.621
100.626
100.629
100.633
100.637
100.64
100.643
100.645
100.648
100.65
100.652
100.654
100.655
100.657
100.658
100.659
100.659
100.66
100.66
100.66
100.659
100.658
100.657
100.656
100.654
100.653
100.65
100.648
100.645
100.643
100.64
100.637
100.634
100.631
100.628
100.625
100.623
100.621
100.619
100.618
100.617
100.617
100.617
100.618
100.62
100.623
100.626
100.63
100.634
100.64
100.645
100.652
100.659
100.666
100.673
100.681
100.689
100.697
100.705
100.713
100.721
100.729
100.737
100.744
100.751
100.758
100.764
100.77
100.775
100.78
100.785
100.789
100.793
100.796
100.799
100.801
100.803
100.804
100.806
100.806
100.807
99.9516
99.952
99.9527
99.9533
99.9537
99.9536
99.9529
99.9515
99.9496
99.9476
99.9458
99.9445
99.9439
99.9439
99.9444
99.945
99.9452
99.9448
99.9435
99.9414
99.9389
99.936
99.9333
99.9309
99.9288
99.927
99.9254
99.924
99.9225
99.9212
99.92
99.9191
99.9186
99.9185
99.9188
99.9194
99.9202
99.9209
99.9216
99.9223
99.9229
99.9235
99.9243
99.9252
99.9262
99.9274
99.9288
99.9304
99.932
99.9339
99.9358
99.938
99.9403
99.943
99.9459
99.9492
99.9527
99.9566
99.9608
99.9653
99.97
99.9748
99.9798
99.9848
99.9898
99.9949
99.9999
100.005
100.01
100.014
100.019
100.024
100.028
100.033
100.037
100.042
100.046
100.051
100.056
100.061
100.066
100.072
100.077
100.083
100.089
100.095
100.101
100.106
100.112
100.118
100.124
100.129
100.135
100.14
100.146
100.151
100.157
100.162
100.168
100.173
100.179
100.185
100.192
100.198
100.205
100.212
100.219
100.226
100.234
100.242
100.25
100.258
100.266
100.274
100.282
100.291
100.299
100.307
100.315
100.323
100.331
100.338
100.346
100.354
100.361
100.369
100.376
100.383
100.39
100.397
100.404
100.41
100.416
100.422
100.428
100.434
100.439
100.444
100.448
100.452
100.456
100.459
100.463
100.466
100.468
100.471
100.473
100.476
100.479
100.481
100.484
100.488
100.491
100.495
100.499
100.504
100.509
100.515
100.52
100.526
100.533
100.539
100.546
100.553
100.56
100.567
100.574
100.58
100.587
100.593
100.599
100.605
100.61
100.615
100.62
100.624
100.628
100.632
100.636
100.639
100.642
100.645
100.647
100.65
100.652
100.654
100.656
100.657
100.659
100.66
100.661
100.661
100.662
100.662
100.662
100.661
100.661
100.66
100.658
100.657
100.655
100.653
100.651
100.648
100.646
100.643
100.64
100.637
100.634
100.632
100.629
100.627
100.625
100.623
100.622
100.621
100.621
100.621
100.623
100.625
100.627
100.63
100.634
100.639
100.644
100.65
100.656
100.663
100.67
100.678
100.686
100.694
100.702
100.71
100.718
100.726
100.734
100.741
100.749
100.756
100.762
100.768
100.774
100.78
100.785
100.789
100.793
100.797
100.8
100.803
100.805
100.807
100.809
100.81
100.811
100.811
99.9519
99.9525
99.9533
99.9542
99.9549
99.9551
99.9547
99.9537
99.9521
99.9504
99.9488
99.9476
99.9471
99.9471
99.9475
99.9479
99.9479
99.9471
99.9455
99.9431
99.9402
99.9371
99.9342
99.9316
99.9295
99.9278
99.9264
99.9252
99.9241
99.9231
99.9223
99.9219
99.9219
99.9222
99.9229
99.9239
99.9248
99.9258
99.9265
99.9272
99.9277
99.9282
99.9288
99.9296
99.9305
99.9316
99.9329
99.9344
99.9361
99.938
99.9402
99.9426
99.9453
99.9483
99.9516
99.9553
99.9593
99.9636
99.9683
99.9731
99.9782
99.9834
99.9886
99.9939
99.9992
100.004
100.01
100.015
100.019
100.024
100.029
100.034
100.038
100.043
100.047
100.052
100.057
100.062
100.067
100.072
100.077
100.083
100.089
100.094
100.1
100.106
100.112
100.118
100.124
100.13
100.135
100.141
100.146
100.152
100.157
100.162
100.168
100.173
100.179
100.184
100.19
100.196
100.202
100.208
100.215
100.221
100.228
100.235
100.243
100.25
100.258
100.266
100.274
100.282
100.289
100.297
100.305
100.313
100.321
100.328
100.336
100.343
100.351
100.358
100.366
100.373
100.38
100.387
100.394
100.401
100.408
100.415
100.421
100.428
100.434
100.439
100.445
100.45
100.454
100.459
100.463
100.466
100.47
100.473
100.475
100.478
100.481
100.483
100.486
100.489
100.492
100.495
100.498
100.502
100.506
100.511
100.516
100.521
100.527
100.533
100.539
100.546
100.552
100.559
100.566
100.572
100.579
100.585
100.591
100.597
100.603
100.609
100.614
100.618
100.623
100.627
100.631
100.635
100.638
100.641
100.644
100.647
100.649
100.652
100.654
100.656
100.658
100.659
100.66
100.662
100.663
100.663
100.664
100.664
100.664
100.664
100.663
100.663
100.661
100.66
100.658
100.657
100.655
100.652
100.65
100.647
100.644
100.642
100.639
100.636
100.634
100.632
100.63
100.628
100.627
100.626
100.626
100.627
100.628
100.63
100.633
100.636
100.64
100.645
100.65
100.656
100.662
100.669
100.676
100.684
100.692
100.7
100.708
100.716
100.724
100.732
100.74
100.747
100.754
100.761
100.768
100.774
100.78
100.785
100.79
100.795
100.799
100.802
100.806
100.808
100.811
100.813
100.814
100.815
100.816
100.816
99.952
99.9527
99.9537
99.9549
99.9559
99.9565
99.9565
99.9559
99.9547
99.9533
99.952
99.951
99.9505
99.9505
99.9508
99.951
99.9506
99.9495
99.9474
99.9446
99.9414
99.9379
99.9348
99.932
99.9299
99.9282
99.9269
99.926
99.9252
99.9247
99.9244
99.9245
99.9249
99.9258
99.9269
99.9281
99.9294
99.9304
99.9313
99.9319
99.9323
99.9327
99.9331
99.9335
99.9342
99.9352
99.9363
99.9378
99.9395
99.9415
99.9438
99.9465
99.9495
99.9528
99.9566
99.9607
99.9652
99.97
99.9751
99.9804
99.9858
99.9914
99.9969
100.002
100.008
100.013
100.019
100.024
100.029
100.034
100.039
100.043
100.048
100.053
100.057
100.062
100.067
100.072
100.077
100.083
100.088
100.094
100.1
100.106
100.112
100.118
100.124
100.13
100.136
100.142
100.148
100.153
100.159
100.164
100.169
100.174
100.18
100.185
100.19
100.196
100.201
100.207
100.213
100.219
100.225
100.232
100.239
100.246
100.253
100.26
100.267
100.275
100.282
100.29
100.297
100.305
100.312
100.319
100.327
100.334
100.341
100.349
100.356
100.363
100.37
100.377
100.384
100.392
100.399
100.406
100.413
100.419
100.426
100.433
100.439
100.445
100.45
100.456
100.461
100.465
100.469
100.473
100.477
100.48
100.483
100.486
100.488
100.491
100.494
100.497
100.499
100.503
100.506
100.51
100.514
100.518
100.523
100.528
100.534
100.54
100.546
100.552
100.559
100.565
100.572
100.578
100.584
100.59
100.596
100.602
100.607
100.613
100.617
100.622
100.626
100.63
100.634
100.637
100.64
100.643
100.646
100.649
100.651
100.653
100.655
100.657
100.659
100.661
100.662
100.663
100.664
100.665
100.666
100.666
100.666
100.666
100.666
100.665
100.665
100.663
100.662
100.66
100.658
100.656
100.654
100.652
100.649
100.646
100.644
100.641
100.639
100.637
100.635
100.634
100.633
100.632
100.633
100.633
100.635
100.637
100.639
100.643
100.647
100.651
100.657
100.663
100.669
100.676
100.683
100.691
100.698
100.706
100.714
100.722
100.73
100.738
100.746
100.753
100.761
100.767
100.774
100.78
100.786
100.791
100.796
100.801
100.805
100.808
100.811
100.814
100.816
100.818
100.82
100.821
100.822
100.822
99.9515
99.9523
99.9536
99.9551
99.9565
99.9576
99.958
99.9578
99.957
99.956
99.9549
99.9541
99.9538
99.9538
99.9539
99.9538
99.9531
99.9515
99.9491
99.9458
99.9421
99.9383
99.9348
99.9319
99.9297
99.9281
99.9269
99.9262
99.9258
99.9257
99.9259
99.9265
99.9274
99.9287
99.9303
99.9318
99.9333
99.9344
99.9353
99.9358
99.9361
99.9362
99.9364
99.9366
99.937
99.9377
99.9387
99.94
99.9417
99.9437
99.9461
99.9489
99.9522
99.9559
99.96
99.9645
99.9694
99.9747
99.9802
99.9859
99.9917
99.9976
100.003
100.009
100.015
100.021
100.026
100.031
100.036
100.041
100.046
100.051
100.056
100.06
100.065
100.07
100.075
100.081
100.086
100.092
100.097
100.103
100.11
100.116
100.122
100.129
100.135
100.141
100.147
100.153
100.159
100.165
100.17
100.176
100.181
100.186
100.191
100.196
100.202
100.207
100.213
100.218
100.224
100.23
100.236
100.243
100.249
100.256
100.263
100.269
100.276
100.283
100.291
100.298
100.305
100.312
100.319
100.326
100.332
100.339
100.346
100.353
100.36
100.367
100.374
100.381
100.388
100.395
100.402
100.409
100.416
100.423
100.43
100.436
100.443
100.449
100.455
100.461
100.466
100.471
100.475
100.479
100.483
100.486
100.49
100.493
100.495
100.498
100.501
100.504
100.507
100.51
100.513
100.517
100.521
100.525
100.53
100.535
100.541
100.546
100.552
100.558
100.564
100.571
100.577
100.583
100.589
100.595
100.6
100.606
100.611
100.616
100.62
100.625
100.628
100.632
100.636
100.639
100.642
100.644
100.647
100.65
100.652
100.654
100.656
100.658
100.66
100.661
100.663
100.664
100.666
100.667
100.667
100.668
100.668
100.668
100.668
100.668
100.667
100.666
100.665
100.664
100.662
100.66
100.658
100.656
100.654
100.651
100.649
100.647
100.645
100.643
100.641
100.64
100.639
100.639
100.639
100.64
100.641
100.643
100.646
100.649
100.653
100.658
100.663
100.669
100.676
100.682
100.69
100.697
100.705
100.713
100.721
100.729
100.737
100.744
100.752
100.759
100.767
100.773
100.78
100.786
100.792
100.797
100.802
100.806
100.81
100.814
100.817
100.819
100.822
100.824
100.825
100.826
100.827
100.827
99.9503
99.9513
99.9529
99.9547
99.9565
99.958
99.9589
99.9591
99.9588
99.9581
99.9574
99.9568
99.9565
99.9565
99.9565
99.9562
99.9551
99.9531
99.9502
99.9465
99.9424
99.9382
99.9344
99.9313
99.929
99.9274
99.9264
99.9259
99.9258
99.9261
99.9267
99.9277
99.9292
99.9309
99.9328
99.9346
99.9363
99.9375
99.9383
99.9388
99.9388
99.9387
99.9385
99.9384
99.9385
99.9389
99.9396
99.9408
99.9423
99.9443
99.9467
99.9497
99.9531
99.957
99.9615
99.9663
99.9716
99.9772
99.983
99.989
99.9951
100.001
100.007
100.013
100.019
100.025
100.03
100.036
100.041
100.046
100.051
100.055
100.06
100.065
100.07
100.075
100.08
100.086
100.092
100.098
100.104
100.11
100.116
100.123
100.13
100.136
100.143
100.149
100.156
100.162
100.168
100.174
100.179
100.185
100.19
100.196
100.201
100.206
100.212
100.217
100.222
100.228
100.234
100.24
100.246
100.252
100.258
100.265
100.271
100.278
100.285
100.291
100.298
100.305
100.311
100.318
100.324
100.331
100.337
100.344
100.35
100.356
100.363
100.37
100.376
100.383
100.39
100.397
100.404
100.411
100.418
100.425
100.432
100.439
100.446
100.452
100.458
100.464
100.469
100.475
100.479
100.484
100.488
100.491
100.495
100.498
100.501
100.504
100.507
100.51
100.513
100.516
100.519
100.523
100.527
100.531
100.536
100.541
100.546
100.552
100.557
100.563
100.569
100.575
100.581
100.587
100.593
100.598
100.604
100.609
100.613
100.618
100.622
100.626
100.63
100.633
100.636
100.639
100.642
100.645
100.647
100.649
100.652
100.654
100.656
100.658
100.66
100.661
100.663
100.665
100.666
100.667
100.668
100.669
100.67
100.67
100.67
100.67
100.67
100.669
100.668
100.667
100.665
100.664
100.662
100.66
100.658
100.656
100.654
100.652
100.65
100.648
100.646
100.645
100.645
100.644
100.645
100.645
100.647
100.649
100.652
100.655
100.659
100.664
100.669
100.675
100.682
100.688
100.696
100.703
100.711
100.719
100.727
100.734
100.742
100.75
100.757
100.765
100.772
100.778
100.785
100.791
100.796
100.801
100.806
100.811
100.814
100.818
100.821
100.824
100.826
100.828
100.829
100.83
100.831
100.831
99.9485
99.9497
99.9515
99.9537
99.9559
99.9578
99.9591
99.9598
99.9599
99.9596
99.9591
99.9588
99.9587
99.9587
99.9585
99.958
99.9566
99.9543
99.9509
99.9468
99.9423
99.9378
99.9338
99.9305
99.928
99.9264
99.9255
99.9252
99.9254
99.9259
99.927
99.9284
99.9302
99.9323
99.9345
99.9366
99.9384
99.9397
99.9405
99.9407
99.9406
99.9402
99.9397
99.9392
99.939
99.939
99.9395
99.9403
99.9417
99.9436
99.946
99.9489
99.9524
99.9565
99.9611
99.9661
99.9716
99.9774
99.9835
99.9897
99.996
100.002
100.008
100.014
100.02
100.026
100.031
100.037
100.042
100.047
100.052
100.056
100.061
100.066
100.071
100.076
100.082
100.088
100.094
100.1
100.106
100.113
100.12
100.127
100.134
100.141
100.148
100.154
100.161
100.168
100.174
100.18
100.186
100.192
100.197
100.203
100.208
100.214
100.219
100.224
100.23
100.236
100.242
100.247
100.253
100.26
100.266
100.272
100.279
100.285
100.291
100.298
100.304
100.31
100.317
100.323
100.329
100.335
100.341
100.347
100.353
100.359
100.365
100.371
100.377
100.384
100.39
100.397
100.404
100.411
100.418
100.425
100.432
100.439
100.446
100.453
100.459
100.465
100.471
100.477
100.482
100.486
100.49
100.494
100.498
100.501
100.504
100.508
100.511
100.514
100.517
100.52
100.523
100.527
100.531
100.535
100.54
100.545
100.55
100.555
100.561
100.567
100.572
100.578
100.584
100.589
100.595
100.6
100.605
100.61
100.614
100.619
100.623
100.626
100.63
100.633
100.636
100.639
100.641
100.644
100.646
100.648
100.651
100.653
100.655
100.657
100.659
100.661
100.662
100.664
100.666
100.667
100.668
100.669
100.67
100.671
100.671
100.671
100.671
100.671
100.67
100.669
100.668
100.667
100.665
100.663
100.661
100.66
100.658
100.656
100.654
100.652
100.651
100.65
100.649
100.649
100.65
100.651
100.652
100.654
100.657
100.661
100.665
100.669
100.675
100.68
100.687
100.694
100.701
100.708
100.716
100.723
100.731
100.739
100.747
100.754
100.762
100.769
100.776
100.782
100.788
100.794
100.8
100.805
100.81
100.814
100.818
100.821
100.824
100.827
100.829
100.831
100.832
100.833
100.834
100.834
99.9463
99.9476
99.9496
99.9521
99.9547
99.957
99.9588
99.9599
99.9604
99.9604
99.9603
99.9602
99.9602
99.9602
99.9601
99.9593
99.9578
99.9551
99.9515
99.947
99.9422
99.9374
99.9332
99.9297
99.9272
99.9255
99.9247
99.9245
99.9249
99.9257
99.927
99.9288
99.9309
99.9333
99.9358
99.938
99.9399
99.9412
99.9419
99.9421
99.9417
99.9411
99.9402
99.9395
99.9389
99.9386
99.9387
99.9393
99.9404
99.9421
99.9444
99.9473
99.9507
99.9548
99.9594
99.9646
99.9701
99.976
99.9821
99.9884
99.9947
100.001
100.007
100.013
100.019
100.024
100.03
100.035
100.04
100.045
100.05
100.054
100.059
100.064
100.069
100.074
100.08
100.086
100.092
100.099
100.105
100.112
100.119
100.127
100.134
100.141
100.149
100.156
100.163
100.17
100.176
100.183
100.189
100.195
100.201
100.206
100.212
100.218
100.223
100.229
100.235
100.241
100.246
100.252
100.259
100.265
100.271
100.277
100.284
100.29
100.296
100.302
100.309
100.314
100.32
100.326
100.332
100.337
100.343
100.348
100.354
100.36
100.365
100.371
100.377
100.383
100.39
100.396
100.403
100.41
100.417
100.424
100.431
100.438
100.445
100.452
100.459
100.465
100.471
100.477
100.482
100.487
100.491
100.495
100.499
100.503
100.506
100.509
100.512
100.516
100.519
100.522
100.526
100.529
100.533
100.538
100.542
100.547
100.552
100.557
100.563
100.568
100.574
100.579
100.585
100.59
100.596
100.601
100.605
100.61
100.614
100.618
100.622
100.625
100.629
100.632
100.634
100.637
100.64
100.642
100.644
100.647
100.649
100.651
100.653
100.655
100.657
100.659
100.661
100.663
100.665
100.667
100.668
100.669
100.67
100.671
100.672
100.672
100.672
100.672
100.672
100.671
100.67
100.669
100.667
100.666
100.664
100.662
100.661
100.659
100.657
100.656
100.654
100.654
100.653
100.653
100.653
100.654
100.656
100.658
100.661
100.665
100.669
100.673
100.679
100.684
100.691
100.697
100.704
100.712
100.719
100.727
100.735
100.742
100.75
100.757
100.765
100.772
100.778
100.785
100.791
100.797
100.802
100.807
100.811
100.816
100.819
100.823
100.826
100.828
100.83
100.832
100.834
100.835
100.835
100.835
99.9439
99.9454
99.9476
99.9504
99.9533
99.956
99.9581
99.9596
99.9604
99.9608
99.961
99.9611
99.9613
99.9614
99.9613
99.9605
99.9588
99.956
99.9521
99.9474
99.9424
99.9374
99.933
99.9295
99.9269
99.9252
99.9245
99.9244
99.9249
99.9259
99.9274
99.9294
99.9318
99.9344
99.937
99.9394
99.9414
99.9427
99.9434
99.9434
99.9428
99.9419
99.9408
99.9398
99.9389
99.9383
99.9381
99.9384
99.9393
99.9408
99.9429
99.9456
99.949
99.953
99.9575
99.9626
99.9681
99.9739
99.98
99.9862
99.9924
99.9985
100.005
100.01
100.016
100.021
100.026
100.031
100.036
100.041
100.045
100.05
100.055
100.06
100.065
100.07
100.076
100.082
100.088
100.095
100.102
100.109
100.116
100.124
100.131
100.139
100.147
100.154
100.161
100.168
100.175
100.182
100.188
100.195
100.201
100.207
100.213
100.218
100.224
100.23
100.236
100.242
100.248
100.255
100.261
100.267
100.274
100.28
100.286
100.293
100.299
100.305
100.311
100.317
100.322
100.328
100.333
100.339
100.344
100.349
100.354
100.359
100.365
100.37
100.376
100.382
100.388
100.395
100.401
100.408
100.415
100.422
100.429
100.436
100.443
100.45
100.457
100.463
100.469
100.475
100.481
100.486
100.49
100.495
100.499
100.502
100.506
100.509
100.513
100.516
100.519
100.523
100.526
100.53
100.534
100.538
100.543
100.547
100.552
100.558
100.563
100.568
100.574
100.579
100.585
100.59
100.595
100.6
100.604
100.609
100.613
100.617
100.62
100.624
100.627
100.63
100.633
100.635
100.638
100.64
100.642
100.645
100.647
100.649
100.652
100.654
100.656
100.658
100.66
100.662
100.664
100.666
100.668
100.669
100.67
100.671
100.672
100.673
100.673
100.673
100.673
100.672
100.671
100.67
100.669
100.667
100.666
100.664
100.662
100.661
100.659
100.658
100.657
100.656
100.656
100.656
100.656
100.657
100.659
100.661
100.664
100.667
100.671
100.676
100.681
100.687
100.693
100.7
100.707
100.714
100.722
100.729
100.737
100.744
100.752
100.759
100.766
100.773
100.78
100.786
100.792
100.798
100.803
100.808
100.812
100.816
100.82
100.823
100.826
100.828
100.831
100.832
100.834
100.835
100.835
100.835
99.9418
99.9434
99.9458
99.9488
99.952
99.9549
99.9574
99.9591
99.9603
99.961
99.9614
99.9618
99.9622
99.9625
99.9624
99.9617
99.96
99.9571
99.9531
99.9484
99.9432
99.9382
99.9337
99.9301
99.9275
99.9259
99.9251
99.9251
99.9257
99.9269
99.9285
99.9307
99.9332
99.9359
99.9387
99.9412
99.9432
99.9445
99.9451
99.945
99.9444
99.9433
99.942
99.9408
99.9396
99.9388
99.9384
99.9385
99.9391
99.9404
99.9423
99.9449
99.9481
99.9519
99.9563
99.9612
99.9666
99.9722
99.9781
99.9841
99.9901
99.996
100.002
100.007
100.013
100.018
100.023
100.027
100.032
100.036
100.041
100.045
100.05
100.054
100.059
100.065
100.07
100.076
100.083
100.09
100.097
100.104
100.112
100.119
100.127
100.135
100.142
100.15
100.157
100.165
100.172
100.179
100.185
100.192
100.198
100.204
100.21
100.216
100.222
100.229
100.235
100.241
100.247
100.254
100.26
100.267
100.274
100.28
100.287
100.293
100.3
100.306
100.312
100.318
100.323
100.329
100.334
100.339
100.344
100.349
100.354
100.359
100.364
100.369
100.375
100.38
100.386
100.393
100.399
100.406
100.412
100.419
100.427
100.434
100.441
100.448
100.454
100.461
100.467
100.473
100.478
100.484
100.488
100.493
100.497
100.501
100.504
100.508
100.511
100.515
100.518
100.521
100.525
100.529
100.533
100.537
100.542
100.546
100.551
100.556
100.562
100.567
100.572
100.578
100.583
100.588
100.593
100.598
100.602
100.607
100.611
100.615
100.618
100.622
100.625
100.628
100.631
100.633
100.636
100.638
100.641
100.643
100.646
100.648
100.65
100.653
100.655
100.657
100.66
100.662
100.664
100.666
100.668
100.669
100.67
100.672
100.672
100.673
100.673
100.673
100.673
100.673
100.672
100.671
100.67
100.668
100.667
100.665
100.663
100.662
100.66
100.659
100.658
100.657
100.657
100.657
100.658
100.659
100.66
100.663
100.665
100.669
100.673
100.678
100.683
100.689
100.695
100.701
100.708
100.715
100.723
100.73
100.738
100.745
100.752
100.76
100.767
100.773
100.78
100.786
100.792
100.798
100.803
100.807
100.812
100.816
100.819
100.822
100.825
100.828
100.83
100.831
100.833
100.834
100.834
100.835
99.9402
99.9419
99.9445
99.9476
99.951
99.9541
99.9568
99.9588
99.9602
99.9611
99.9618
99.9624
99.963
99.9636
99.9637
99.9631
99.9615
99.9587
99.9548
99.9501
99.945
99.9399
99.9355
99.9319
99.9294
99.9278
99.927
99.927
99.9276
99.9288
99.9305
99.9327
99.9353
99.9382
99.941
99.9435
99.9456
99.9469
99.9475
99.9474
99.9467
99.9456
99.9442
99.9428
99.9416
99.9406
99.94
99.94
99.9405
99.9416
99.9433
99.9457
99.9488
99.9524
99.9566
99.9613
99.9663
99.9717
99.9774
99.9831
99.9888
99.9944
99.9998
100.005
100.01
100.015
100.019
100.024
100.028
100.032
100.037
100.041
100.045
100.05
100.055
100.06
100.066
100.071
100.078
100.084
100.092
100.099
100.106
100.114
100.122
100.13
100.137
100.145
100.152
100.159
100.167
100.173
100.18
100.187
100.193
100.199
100.205
100.212
100.218
100.224
100.231
100.237
100.244
100.251
100.258
100.265
100.271
100.278
100.285
100.292
100.298
100.305
100.311
100.317
100.322
100.328
100.333
100.338
100.343
100.348
100.353
100.358
100.363
100.368
100.374
100.379
100.385
100.391
100.397
100.404
100.41
100.417
100.424
100.431
100.438
100.445
100.452
100.458
100.465
100.47
100.476
100.481
100.486
100.49
100.495
100.499
100.502
100.506
100.509
100.512
100.516
100.519
100.523
100.527
100.531
100.535
100.539
100.544
100.549
100.554
100.559
100.564
100.57
100.575
100.58
100.585
100.591
100.595
100.6
100.604
100.609
100.612
100.616
100.62
100.623
100.626
100.629
100.632
100.635
100.637
100.64
100.643
100.645
100.648
100.65
100.653
100.655
100.658
100.66
100.662
100.664
100.666
100.668
100.67
100.671
100.672
100.673
100.674
100.674
100.674
100.674
100.673
100.672
100.671
100.67
100.669
100.667
100.665
100.664
100.662
100.661
100.659
100.658
100.658
100.657
100.657
100.658
100.659
100.661
100.663
100.666
100.67
100.674
100.678
100.684
100.689
100.695
100.702
100.709
100.716
100.723
100.731
100.738
100.745
100.753
100.76
100.767
100.773
100.78
100.786
100.791
100.797
100.802
100.807
100.811
100.815
100.818
100.821
100.824
100.826
100.828
100.83
100.831
100.832
100.833
100.833
99.9395
99.9413
99.9439
99.9471
99.9505
99.9538
99.9565
99.9586
99.9602
99.9613
99.9622
99.963
99.9639
99.9647
99.9651
99.9648
99.9634
99.9608
99.9571
99.9525
99.9476
99.9427
99.9383
99.9349
99.9323
99.9308
99.93
99.93
99.9306
99.9318
99.9334
99.9356
99.9382
99.941
99.9439
99.9464
99.9485
99.9499
99.9505
99.9504
99.9498
99.9487
99.9473
99.946
99.9447
99.9437
99.9431
99.943
99.9435
99.9445
99.9461
99.9483
99.9512
99.9546
99.9586
99.963
99.9678
99.9729
99.9782
99.9836
99.989
99.9943
99.9994
100.004
100.009
100.014
100.018
100.022
100.026
100.03
100.034
100.038
100.042
100.047
100.052
100.057
100.062
100.068
100.074
100.081
100.088
100.095
100.102
100.11
100.117
100.125
100.132
100.14
100.147
100.154
100.161
100.167
100.174
100.18
100.187
100.193
100.199
100.206
100.212
100.218
100.225
100.232
100.239
100.246
100.253
100.26
100.267
100.274
100.281
100.288
100.295
100.302
100.308
100.315
100.321
100.326
100.332
100.337
100.342
100.347
100.352
100.357
100.362
100.367
100.373
100.378
100.384
100.39
100.396
100.403
100.409
100.416
100.423
100.43
100.437
100.443
100.45
100.456
100.462
100.468
100.474
100.479
100.484
100.488
100.492
100.496
100.5
100.503
100.506
100.51
100.513
100.516
100.52
100.524
100.527
100.532
100.536
100.541
100.546
100.551
100.556
100.561
100.566
100.572
100.577
100.583
100.588
100.593
100.597
100.602
100.606
100.61
100.614
100.618
100.622
100.625
100.628
100.631
100.634
100.637
100.64
100.643
100.646
100.648
100.651
100.654
100.656
100.659
100.661
100.663
100.665
100.667
100.669
100.671
100.672
100.673
100.674
100.674
100.674
100.674
100.674
100.673
100.672
100.671
100.67
100.668
100.667
100.665
100.663
100.661
100.66
100.659
100.658
100.657
100.657
100.657
100.657
100.659
100.66
100.663
100.666
100.669
100.673
100.678
100.683
100.689
100.695
100.702
100.709
100.716
100.723
100.73
100.738
100.745
100.752
100.759
100.766
100.773
100.779
100.785
100.791
100.796
100.801
100.805
100.81
100.813
100.817
100.82
100.822
100.825
100.827
100.828
100.83
100.83
100.831
100.831
99.9396
99.9413
99.9439
99.9471
99.9505
99.9538
99.9565
99.9586
99.9602
99.9614
99.9625
99.9635
99.9647
99.9658
99.9665
99.9665
99.9655
99.9632
99.9598
99.9555
99.9507
99.9461
99.9419
99.9386
99.9361
99.9346
99.9338
99.9337
99.9342
99.9353
99.9369
99.9389
99.9414
99.9442
99.947
99.9495
99.9516
99.953
99.9537
99.9537
99.9532
99.9522
99.951
99.9498
99.9487
99.9478
99.9473
99.9472
99.9477
99.9487
99.9502
99.9524
99.9551
99.9583
99.9621
99.9662
99.9708
99.9756
99.9806
99.9857
99.9908
99.9958
100.001
100.005
100.01
100.014
100.018
100.022
100.026
100.03
100.034
100.038
100.042
100.046
100.051
100.056
100.061
100.067
100.073
100.079
100.086
100.092
100.099
100.107
100.114
100.121