# vtk DataFile Version 2.0
HPC Tutorials: Michael Bader, Kaveh Rahnema, Oliver Meister
ASCII
DATASET RECTILINEAR_GRID
DIMENSIONS 257 257 1
X_COORDINATES 257 float
0
0.005
0.01
0.015
0.02
0.025
0.03
0.035
0.04
0.045
0.05
0.055
0.06
0.065
0.07
0.075
0.08
0.085
0.09
0.095
0.1
0.105
0.11
0.115
0.12
0.125
0.13
0.135
0.14
0.145
0.15
0.155
0.16
0.165
0.17
0.175
0.18
0.185
0.19
0.195
0.2
0.205
0.21
0.215
0.22
0.225
0.23
0.235
0.24
0.245
0.25
0.255
0.26
0.265
0.27
0.275
0.28
0.285
0.29
0.295
0.3
0.305
0.31
0.315
0.32
0.325
0.33
0.335
0.34
0.345
0.35
0.355
0.36
0.365
0.37
0.375
0.38
0.385
0.39
0.395
0.4
0.405
0.41
0.415
0.42
0.425
0.43
0.435
0.44
0.445
0.45
0.455
0.46
0.465
0.47
0.475
0.48
0.485
0.49
0.495
0.5
0.505
0.51
0.515
0.52
0.525
0.53
0.535
0.54
0.545
0.55
0.555
0.56
0.565
0.57
0.575
0.58
0.585
0.59
0.595
0.6
0.605
0.61
0.615
0.62
0.625
0.63
0.635
0.64
0.645
0.65
0.655
0.66
0.665
0.67
0.675
0.68
0.685
0.69
0.695
0.7
0.705
0.71
0.715
0.72
0.725
0.73
0.735
0.74
0.745
0.75
0.755
0.76
0.765
0.77
0.775
0.78
0.785
0.79
0.795
0.8
0.805
0.81
0.815
0.82
0.825
0.83
0.835
0.84
0.845
0.85
0.855
0.86
0.865
0.87
0.875
0.88
0.885
0.89
0.895
0.9
0.905
0.91
0.915
0.92
0.925
0.93
0.935
0.94
0.945
0.95
0.955
0.96
0.965
0.97
0.975
0.98
0.985
0.99
0.995
1
1.005
1.01
1.015
1.02
1.025
1.03
1.035
1.04
1.045
1.05
1.055
1.06
1.065
1.07
1.075
1.08
1.085
1.09
1.095
1.1
1.105
1.11
1.115
1.12
1.125
1.13
1.135
1.14
1.145
1.15
1.155
1.16
1.165
1.17
1.175
1.18
1.185
1.19
1.195
1.2
1.205
1.21
1.215
1.22
1.225
1.23
1.235
1.24
1.245
1.25
1.255
1.26
1.265
1.27
1.275
1.28
Y_COORDINATES 257 float
0
0.005
0.01
0.015
0.02
0.025
0.03
0.035
0.04
0.045
0.05
0.055
0.06
0.065
0.07
0.075
0.08
0.085
0.09
0.095
0.1
0.105
0.11
0.115
0.12
0.125
0.13
0.135
0.14
0.145
0.15
0.155
0.16
0.165
0.17
0.175
0.18
0.185
0.19
0.195
0.2
0.205
0.21
0.215
0.22
0.225
0.23
0.235
0.24
0.245
0.25
0.255
0.26
0.265
0.27
0.275
0.28
0.285
0.29
0.295
0.3
0.305
0.31
0.315
0.32
0.325
0.33
0.335
0.34
0.345
0.35
0.355
0.36
0.365
0.37
0.375
0.38
0.385
0.39
0.395
0.4
0.405
0.41
0.415
0.42
0.425
0.43
0.435
0.44
0.445
0.45
0.455
0.46
0.465
0.47
0.475
0.48
0.485
0.49
0.495
0.5
0.505
0.51
0.515
0.52
0.525
0.53
0.535
0.54
0.545
0.55
0.555
0.56
0.565
0.57
0.575
0.58
0.585
0.59
0.595
0.6
0.605
0.61
0.615
0.62
0.625
0.63
0.635
0.64
0.645
0.65
0.655
0.66
0.665
0.67
0.675
0.68
0.685
0.69
0.695
0.7
0.705
0.71
0.715
0.72
0.725
0.73
0.735
0.74
0.745
0.75
0.755
0.76
0.765
0.77
0.775
0.78
0.785
0.79
0.795
0.8
0.805
0.81
0.815
0.82
0.825
0.83
0.835
0.84
0.845
0.85
0.855
0.86
0.865
0.87
0.875
0.88
0.885
0.89
0.895
0.9
0.905
0.91
0.915
0.92
0.925
0.93
0.935
0.94
0.945
0.95
0.955
0.96
0.965
0.97
0.975
0.98
0.985
0.99
0.995
1
1.005
1.01
1.015
1.02
1.025
1.03
1.035
1.04
1.045
1.05
1.055
1.06
1.065
1.07
1.075
1.08
1.085
1.09
1.095
1.1
1.105
1.11
1.115
1.12
1.125
1.13
1.135
1.14
1.145
1.15
1.155
1.16
1.165
1.17
1.175
1.18
1.185
1.19
1.195
1.2
1.205
1.21
1.215
1.22
1.225
1.23
1.235
1.24
1.245
1.25
1.255
1.26
1.265
1.27
1.275
1.28
Z_COORDINATES 1 float
0
CELL_DATA 65536
SCALARS H float 1
LOOKUP_TABLE default
101.56
101.561
101.562
101.563
101.564
101.566
101.568
101.57
101.572
101.574
101.576
101.578
101.579
101.581
101.582
101.582
101.583
101.582
101.582
101.581
101.58
101.578
101.576
101.574
101.572
101.569
101.567
101.564
101.562
101.559
101.557
101.555
101.553
101.551
101.549
101.547
101.545
101.543
101.541
101.538
101.535
101.532
101.528
101.524
101.519
101.513
101.506
101.499
101.491
101.483
101.474
101.465
101.455
101.446
101.436
101.427
101.418
101.409
101.401
101.393
101.386
101.38
101.374
101.369
101.365
101.361
101.358
101.356
101.355
101.354
101.353
101.353
101.354
101.354
101.355
101.357
101.358
101.36
101.361
101.363
101.365
101.367
101.368
101.37
101.371
101.373
101.374
101.375
101.375
101.376
101.376
101.376
101.375
101.374
101.373
101.371
101.369
101.367
101.365
101.362
101.359
101.356
101.352
101.349
101.345
101.341
101.337
101.332
101.328
101.323
101.318
101.313
101.307
101.302
101.296
101.29
101.284
101.278
101.272
101.266
101.26
101.254
101.248
101.243
101.237
101.232
101.226
101.221
101.215
101.209
101.204
101.198
101.191
101.185
101.177
101.17
101.161
101.153
101.143
101.133
101.122
101.111
101.1
101.088
101.075
101.063
101.05
101.037
101.024
101.012
100.999
100.987
100.976
100.965
100.954
100.944
100.934
100.926
100.917
100.91
100.903
100.896
100.891
100.885
100.881
100.876
100.872
100.868
100.865
100.862
100.859
100.856
100.853
100.85
100.847
100.845
100.842
100.839
100.836
100.833
100.83
100.827
100.824
100.82
100.817
100.813
100.81
100.806
100.803
100.799
100.795
100.791
100.788
100.784
100.78
100.777
100.773
100.77
100.767
100.763
100.76
100.757
100.754
100.752
100.749
100.746
100.744
100.742
100.74
100.738
100.736
100.735
100.733
100.732
100.731
100.73
100.729
100.729
100.728
100.728
100.727
100.727
100.727
100.727
100.728
100.728
100.728
100.729
100.73
100.731
100.732
100.733
100.734
100.735
100.736
100.738
100.739
100.741
100.742
100.744
100.746
100.747
100.749
100.75
100.752
100.753
100.754
100.756
100.757
100.758
100.758
100.759
100.76
100.76
100.76
100.761
101.561
101.561
101.562
101.563
101.565
101.567
101.569
101.571
101.573
101.575
101.577
101.579
101.58
101.581
101.582
101.583
101.583
101.583
101.583
101.582
101.58
101.579
101.577
101.575
101.572
101.57
101.567
101.565
101.563
101.56
101.558
101.556
101.554
101.552
101.55
101.548
101.546
101.544
101.542
101.539
101.536
101.533
101.529
101.524
101.519
101.513
101.507
101.499
101.491
101.483
101.474
101.465
101.456
101.446
101.437
101.427
101.418
101.409
101.401
101.393
101.386
101.38
101.374
101.369
101.365
101.361
101.358
101.356
101.355
101.354
101.353
101.353
101.354
101.355
101.356
101.357
101.358
101.36
101.362
101.364
101.365
101.367
101.369
101.371
101.372
101.373
101.374
101.375
101.376
101.376
101.376
101.376
101.375
101.374
101.373
101.371
101.369
101.367
101.365
101.362
101.359
101.356
101.352
101.349
101.345
101.341
101.337
101.332
101.327
101.323
101.317
101.312
101.307
101.301
101.295
101.289
101.283
101.277
101.271
101.265
101.259
101.253
101.248
101.242
101.236
101.231
101.225
101.22
101.214
101.208
101.203
101.196
101.19
101.183
101.176
101.168
101.16
101.151
101.142
101.131
101.121
101.11
101.098
101.086
101.074
101.062
101.049
101.036
101.024
101.011
100.999
100.987
100.976
100.965
100.954
100.944
100.935
100.926
100.918
100.911
100.904
100.897
100.892
100.886
100.881
100.877
100.873
100.869
100.866
100.862
100.859
100.856
100.853
100.851
100.848
100.845
100.842
100.839
100.836
100.833
100.83
100.827
100.824
100.82
100.817
100.813
100.81
100.806
100.802
100.799
100.795
100.791
100.788
100.784
100.78
100.777
100.773
100.77
100.766
100.763
100.76
100.757
100.754
100.752
100.749
100.747
100.744
100.742
100.74
100.739
100.737
100.735
100.734
100.733
100.732
100.731
100.73
100.729
100.729
100.728
100.728
100.728
100.728
100.728
100.728
100.729
100.729
100.73
100.73
100.731
100.732
100.733
100.734
100.735
100.737
100.738
100.74
100.741
100.743
100.744
100.746
100.747
100.749
100.75
100.751
100.753
100.754
100.755
100.756
100.757
100.758
100.759
100.759
100.76
100.76
100.76
101.562
101.562
101.563
101.564
101.566
101.568
101.57
101.572
101.574
101.576
101.578
101.58
101.581
101.583
101.584
101.584
101.584
101.584
101.583
101.582
101.581
101.579
101.577
101.575
101.573
101.571
101.569
101.566
101.564
101.562
101.56
101.558
101.556
101.554
101.552
101.55
101.548
101.546
101.543
101.541
101.538
101.534
101.53
101.525
101.52
101.514
101.507
101.5
101.492
101.483
101.475
101.465
101.456
101.447
101.437
101.428
101.419
101.41
101.402
101.394
101.387
101.38
101.374
101.369
101.365
101.361
101.359
101.356
101.355
101.354
101.353
101.354
101.354
101.355
101.356
101.358
101.359
101.361
101.363
101.365
101.367
101.368
101.37
101.372
101.373
101.374
101.375
101.376
101.377
101.377
101.377
101.377
101.376
101.375
101.373
101.372
101.37
101.368
101.365
101.362
101.359
101.356
101.353
101.349
101.345
101.341
101.336
101.332
101.327
101.322
101.317
101.311
101.306
101.3
101.294
101.288
101.282
101.276
101.27
101.264
101.258
101.252
101.247
101.241
101.235
101.23
101.224
101.218
101.213
101.207
101.201
101.195
101.188
101.181
101.174
101.166
101.157
101.148
101.139
101.129
101.118
101.107
101.096
101.084
101.072
101.06
101.047
101.035
101.023
101.011
100.999
100.987
100.976
100.965
100.955
100.945
100.936
100.927
100.919
100.912
100.905
100.899
100.893
100.888
100.883
100.879
100.874
100.871
100.867
100.864
100.86
100.857
100.854
100.851
100.848
100.846
100.843
100.84
100.837
100.833
100.83
100.827
100.824
100.82
100.817
100.813
100.81
100.806
100.802
100.798
100.795
100.791
100.787
100.784
100.78
100.777
100.773
100.77
100.766
100.763
100.76
100.757
100.755
100.752
100.749
100.747
100.745
100.743
100.741
100.739
100.738
100.736
100.735
100.734
100.733
100.732
100.731
100.73
100.73
100.729
100.729
100.729
100.729
100.729
100.729
100.73
100.73
100.731
100.731
100.732
100.733
100.734
100.735
100.736
100.737
100.739
100.74
100.741
100.743
100.744
100.746
100.747
100.748
100.75
100.751
100.752
100.754
100.755
100.756
100.756
100.757
100.758
100.758
100.759
100.759
100.759
101.563
101.563
101.564
101.566
101.567
101.569
101.571
101.573
101.576
101.578
101.58
101.582
101.583
101.584
101.585
101.586
101.586
101.585
101.585
101.584
101.582
101.58
101.579
101.577
101.574
101.572
101.57
101.568
101.566
101.564
101.562
101.56
101.558
101.556
101.555
101.553
101.551
101.548
101.546
101.543
101.539
101.536
101.531
101.526
101.521
101.514
101.508
101.5
101.492
101.484
101.475
101.466
101.457
101.447
101.438
101.428
101.419
101.411
101.402
101.395
101.387
101.381
101.375
101.37
101.365
101.362
101.359
101.357
101.355
101.354
101.354
101.354
101.354
101.356
101.357
101.358
101.36
101.362
101.364
101.366
101.368
101.37
101.372
101.373
101.375
101.376
101.377
101.378
101.378
101.378
101.378
101.377
101.377
101.375
101.374
101.372
101.37
101.368
101.365
101.363
101.359
101.356
101.353
101.349
101.345
101.34
101.336
101.331
101.326
101.321
101.316
101.31
101.305
101.299
101.293
101.287
101.281
101.275
101.269
101.263
101.257
101.251
101.245
101.239
101.234
101.228
101.222
101.217
101.211
101.205
101.198
101.192
101.185
101.178
101.17
101.162
101.154
101.145
101.135
101.125
101.115
101.104
101.093
101.081
101.069
101.057
101.045
101.033
101.021
101.009
100.998
100.987
100.976
100.965
100.956
100.946
100.937
100.929
100.921
100.914
100.907
100.901
100.895
100.89
100.885
100.881
100.876
100.873
100.869
100.865
100.862
100.859
100.856
100.853
100.849
100.846
100.843
100.84
100.837
100.834
100.831
100.827
100.824
100.82
100.817
100.813
100.809
100.806
100.802
100.798
100.795
100.791
100.787
100.784
100.78
100.777
100.773
100.77
100.767
100.763
100.761
100.758
100.755
100.752
100.75
100.748
100.746
100.744
100.742
100.74
100.739
100.737
100.736
100.735
100.734
100.733
100.732
100.732
100.731
100.731
100.731
100.731
100.731
100.731
100.731
100.731
100.732
100.732
100.733
100.733
100.734
100.735
100.736
100.737
100.738
100.739
100.741
100.742
100.743
100.745
100.746
100.747
100.748
100.75
100.751
100.752
100.753
100.754
100.755
100.756
100.756
100.757
100.757
100.758
100.758
100.758
101.564
101.565
101.566
101.567
101.569
101.571
101.573
101.575
101.578
101.58
101.582
101.584
101.585
101.586
101.587
101.588
101.587
101.587
101.586
101.585
101.584
101.582
101.58
101.578
101.576
101.574
101.572
101.57
101.568
101.566
101.565
101.563
101.561
101.559
101.558
101.556
101.554
101.551
101.548
101.545
101.542
101.537
101.533
101.528
101.522
101.515
101.508
101.501
101.493
101.484
101.476
101.466
101.457
101.448
101.438
101.429
101.42
101.411
101.403
101.395
101.388
101.381
101.375
101.37
101.366
101.362
101.359
101.357
101.355
101.354
101.354
101.354
101.355
101.356
101.358
101.36
101.362
101.364
101.366
101.368
101.37
101.372
101.374
101.376
101.377
101.378
101.379
101.379
101.38
101.38
101.379
101.379
101.378
101.376
101.375
101.373
101.371
101.368
101.366
101.363
101.36
101.356
101.353
101.349
101.345
101.34
101.335
101.331
101.326
101.32
101.315
101.309
101.303
101.298
101.292
101.286
101.28
101.273
101.267
101.261
101.255
101.25
101.244
101.238
101.232
101.226
101.22
101.214
101.208
101.202
101.196
101.189
101.182
101.174
101.166
101.158
101.149
101.14
101.131
101.121
101.11
101.099
101.088
101.077
101.065
101.054
101.042
101.031
101.019
101.008
100.997
100.986
100.976
100.966
100.956
100.947
100.939
100.931
100.923
100.916
100.91
100.904
100.898
100.893
100.888
100.883
100.879
100.875
100.871
100.868
100.864
100.861
100.857
100.854
100.851
100.848
100.844
100.841
100.838
100.835
100.831
100.828
100.824
100.821
100.817
100.813
100.81
100.806
100.802
100.798
100.795
100.791
100.787
100.784
100.78
100.777
100.773
100.77
100.767
100.764
100.761
100.758
100.756
100.753
100.751
100.749
100.747
100.745
100.743
100.742
100.74
100.739
100.738
100.737
100.736
100.735
100.734
100.734
100.733
100.733
100.733
100.733
100.733
100.733
100.733
100.733
100.733
100.734
100.734
100.735
100.736
100.737
100.738
100.738
100.739
100.74
100.742
100.743
100.744
100.745
100.746
100.747
100.748
100.749
100.75
100.751
100.752
100.753
100.754
100.754
100.755
100.755
100.756
100.756
100.756
100.756
101.566
101.567
101.568
101.569
101.571
101.573
101.575
101.578
101.58
101.582
101.584
101.586
101.588
101.589
101.589
101.59
101.589
101.589
101.588
101.587
101.585
101.584
101.582
101.58
101.578
101.576
101.574
101.573
101.571
101.569
101.568
101.566
101.565
101.563
101.561
101.559
101.557
101.554
101.551
101.548
101.544
101.54
101.535
101.529
101.523
101.516
101.509
101.502
101.493
101.485
101.476
101.467
101.458
101.448
101.439
101.43
101.421
101.412
101.404
101.396
101.389
101.382
101.376
101.371
101.366
101.362
101.359
101.357
101.355
101.355
101.354
101.355
101.356
101.357
101.359
101.361
101.363
101.366
101.368
101.37
101.373
101.375
101.376
101.378
101.379
101.38
101.381
101.381
101.382
101.381
101.381
101.38
101.379
101.377
101.376
101.374
101.372
101.369
101.366
101.363
101.36
101.356
101.353
101.349
101.344
101.34
101.335
101.33
101.325
101.319
101.314
101.308
101.302
101.296
101.29
101.284
101.278
101.272
101.266
101.26
101.254
101.248
101.242
101.236
101.23
101.224
101.218
101.212
101.205
101.199
101.192
101.185
101.177
101.17
101.162
101.153
101.144
101.135
101.125
101.115
101.105
101.094
101.083
101.072
101.061
101.05
101.039
101.028
101.017
101.006
100.996
100.986
100.976
100.966
100.957
100.949
100.941
100.933
100.926
100.919
100.913
100.907
100.902
100.896
100.891
100.887
100.883
100.878
100.874
100.871
100.867
100.863
100.86
100.856
100.853
100.849
100.846
100.842
100.839
100.836
100.832
100.828
100.825
100.821
100.817
100.814
100.81
100.806
100.802
100.799
100.795
100.791
100.787
100.784
100.78
100.777
100.774
100.77
100.767
100.764
100.762
100.759
100.757
100.754
100.752
100.75
100.748
100.747
100.745
100.744
100.742
100.741
100.74
100.739
100.738
100.737
100.737
100.736
100.736
100.736
100.735
100.735
100.735
100.735
100.735
100.736
100.736
100.736
100.737
100.737
100.738
100.738
100.739
100.74
100.741
100.742
100.743
100.743
100.744
100.745
100.746
100.747
100.748
100.749
100.75
100.75
100.751
100.752
100.752
100.753
100.753
100.754
100.754
100.754
100.754
100.755
101.568
101.569
101.57
101.571
101.573
101.575
101.578
101.58
101.583
101.585
101.587
101.589
101.59
101.591
101.592
101.592
101.592
101.591
101.59
101.589
101.587
101.586
101.584
101.582
101.58
101.579
101.577
101.576
101.574
101.573
101.571
101.57
101.569
101.567
101.565
101.563
101.561
101.558
101.555
101.551
101.547
101.542
101.537
101.531
101.524
101.517
101.51
101.502
101.494
101.485
101.477
101.468
101.458
101.449
101.44
101.431
101.422
101.413
101.405
101.397
101.39
101.383
101.377
101.371
101.367
101.363
101.36
101.357
101.356
101.355
101.355
101.356
101.357
101.358
101.36
101.363
101.365
101.368
101.37
101.373
101.375
101.377
101.379
101.381
101.382
101.383
101.384
101.384
101.384
101.383
101.383
101.382
101.38
101.379
101.377
101.375
101.372
101.37
101.367
101.364
101.36
101.357
101.353
101.348
101.344
101.339
101.334
101.329
101.324
101.318
101.313
101.307
101.301
101.295
101.289
101.283
101.277
101.271
101.264
101.258
101.252
101.246
101.24
101.234
101.228
101.222
101.215
101.209
101.202
101.195
101.188
101.181
101.173
101.165
101.156
101.147
101.138
101.129
101.119
101.109
101.098
101.088
101.077
101.067
101.056
101.045
101.035
101.024
101.014
101.004
100.994
100.985
100.976
100.967
100.959
100.951
100.943
100.936
100.929
100.923
100.917
100.911
100.906
100.9
100.896
100.891
100.886
100.882
100.878
100.874
100.87
100.866
100.863
100.859
100.855
100.852
100.848
100.844
100.841
100.837
100.833
100.829
100.826
100.822
100.818
100.814
100.81
100.806
100.803
100.799
100.795
100.791
100.788
100.784
100.781
100.777
100.774
100.771
100.768
100.765
100.763
100.76
100.758
100.756
100.754
100.752
100.75
100.748
100.747
100.746
100.745
100.743
100.742
100.742
100.741
100.74
100.74
100.739
100.739
100.738
100.738
100.738
100.738
100.738
100.738
100.738
100.738
100.739
100.739
100.74
100.74
100.741
100.741
100.742
100.742
100.743
100.744
100.744
100.745
100.746
100.746
100.747
100.748
100.748
100.749
100.75
100.75
100.751
100.751
100.751
100.752
100.752
100.752
100.752
100.752
100.753
101.57
101.571
101.572
101.573
101.575
101.578
101.58
101.583
101.585
101.587
101.589
101.591
101.593
101.593
101.594
101.594
101.594
101.593
101.592
101.591
101.589
101.588
101.586
101.585
101.583
101.582
101.58
101.579
101.578
101.577
101.575
101.574
101.573
101.571
101.569
101.567
101.565
101.561
101.558
101.554
101.549
101.544
101.539
101.532
101.526
101.518
101.511
101.503
101.495
101.486
101.477
101.468
101.459
101.45
101.441
101.432
101.423
101.414
101.406
101.398
101.391
101.384
101.378
101.372
101.367
101.363
101.36
101.358
101.357
101.356
101.356
101.357
101.358
101.36
101.362
101.365
101.367
101.37
101.373
101.376
101.378
101.38
101.382
101.384
101.385
101.386
101.387
101.387
101.386
101.386
101.385
101.384
101.382
101.38
101.378
101.376
101.373
101.371
101.368
101.364
101.361
101.357
101.353
101.348
101.344
101.339
101.334
101.329
101.323
101.317
101.312
101.306
101.3
101.294
101.288
101.282
101.275
101.269
101.263
101.257
101.251
101.245
101.239
101.232
101.226
101.22
101.213
101.206
101.199
101.191
101.184
101.176
101.168
101.159
101.15
101.141
101.132
101.122
101.112
101.102
101.092
101.082
101.071
101.061
101.051
101.041
101.031
101.021
101.011
101.002
100.993
100.984
100.976
100.968
100.96
100.953
100.946
100.939
100.933
100.927
100.921
100.915
100.91
100.905
100.9
100.896
100.891
100.887
100.882
100.878
100.874
100.87
100.866
100.862
100.858
100.854
100.85
100.846
100.842
100.838
100.834
100.831
100.827
100.823
100.819
100.815
100.811
100.807
100.803
100.799
100.796
100.792
100.788
100.785
100.781
100.778
100.775
100.772
100.769
100.766
100.764
100.762
100.759
100.757
100.755
100.754
100.752
100.751
100.749
100.748
100.747
100.746
100.745
100.745
100.744
100.743
100.743
100.742
100.742
100.742
100.741
100.741
100.741
100.741
100.741
100.741
100.741
100.742
100.742
100.742
100.742
100.743
100.743
100.744
100.744
100.744
100.745
100.745
100.746
100.746
100.747
100.747
100.748
100.748
100.748
100.749
100.749
100.749
100.75
100.75
100.75
100.75
100.75
100.75
100.75
100.75
101.572
101.573
101.574
101.576
101.578
101.58
101.583
101.585
101.588
101.59
101.592
101.594
101.595
101.596
101.596
101.596
101.596
101.595
101.594
101.593
101.591
101.59
101.589
101.587
101.586
101.585
101.583
101.582
101.581
101.58
101.579
101.578
101.577
101.575
101.574
101.571
101.568
101.565
101.561
101.557
101.552
101.547
101.54
101.534
101.527
101.52
101.512
101.504
101.495
101.486
101.478
101.469
101.459
101.45
101.441
101.432
101.423
101.415
101.407
101.399
101.391
101.385
101.378
101.373
101.368
101.364
101.361
101.359
101.357
101.357
101.357
101.358
101.359
101.361
101.364
101.367
101.37
101.373
101.376
101.379
101.381
101.384
101.386
101.387
101.389
101.389
101.39
101.39
101.389
101.388
101.387
101.386
101.384
101.382
101.38
101.377
101.375
101.372
101.368
101.365
101.361
101.357
101.353
101.348
101.344
101.339
101.333
101.328
101.322
101.317
101.311
101.305
101.299
101.293
101.287
101.281
101.275
101.268
101.262
101.256
101.25
101.243
101.237
101.231
101.224
101.217
101.21
101.203
101.195
101.187
101.179
101.171
101.162
101.153
101.144
101.134
101.125
101.115
101.105
101.095
101.085
101.075
101.065
101.055
101.045
101.036
101.027
101.017
101.009
101
100.992
100.984
100.976
100.969
100.962
100.955
100.949
100.943
100.937
100.931
100.926
100.92
100.915
100.91
100.905
100.901
100.896
100.891
100.887
100.882
100.878
100.874
100.869
100.865
100.861
100.857
100.853
100.848
100.844
100.84
100.836
100.832
100.828
100.824
100.82
100.816
100.812
100.808
100.804
100.8
100.796
100.792
100.789
100.785
100.782
100.779
100.776
100.773
100.77
100.768
100.765
100.763
100.761
100.759
100.757
100.756
100.754
100.753
100.752
100.751
100.75
100.749
100.748
100.748
100.747
100.747
100.746
100.746
100.745
100.745
100.745
100.745
100.745
100.744
100.744
100.744
100.744
100.744
100.745
100.745
100.745
100.745
100.745
100.745
100.746
100.746
100.746
100.746
100.746
100.747
100.747
100.747
100.747
100.747
100.748
100.748
100.748
100.748
100.748
100.748
100.748
100.748
100.748
100.748
100.748
100.748
101.574
101.575
101.576
101.578
101.58
101.582
101.585
101.587
101.59
101.592
101.594
101.596
101.597
101.598
101.598
101.598
101.598
101.597
101.596
101.595
101.594
101.592
101.591
101.59
101.589
101.588
101.587
101.586
101.585
101.584
101.584
101.583
101.581
101.58
101.578
101.575
101.572
101.569
101.565
101.56
101.555
101.549
101.542
101.535
101.528
101.52
101.512
101.504
101.496
101.487
101.478
101.469
101.46
101.451
101.442
101.433
101.424
101.415
101.407
101.399
101.392
101.385
101.379
101.374
101.369
101.365
101.362
101.36
101.358
101.358
101.358
101.359
101.361
101.363
101.366
101.369
101.372
101.376
101.379
101.382
101.385
101.387
101.389
101.391
101.392
101.393
101.393
101.393
101.392
101.391
101.39
101.388
101.386
101.384
101.382
101.379
101.376
101.373
101.369
101.365
101.362
101.357
101.353
101.348
101.344
101.338
101.333
101.328
101.322
101.316
101.31
101.305
101.298
101.292
101.286
101.28
101.274
101.268
101.261
101.255
101.249
101.242
101.236
101.229
101.222
101.215
101.207
101.2
101.191
101.183
101.175
101.166
101.157
101.147
101.138
101.128
101.118
101.108
101.098
101.088
101.078
101.068
101.059
101.049
101.04
101.031
101.023
101.014
101.006
100.998
100.991
100.984
100.977
100.971
100.964
100.958
100.952
100.947
100.941
100.936
100.931
100.926
100.921
100.916
100.911
100.906
100.901
100.896
100.892
100.887
100.882
100.878
100.873
100.869
100.864
100.86
100.855
100.851
100.846
100.842
100.837
100.833
100.829
100.825
100.82
100.816
100.812
100.808
100.804
100.8
100.796
100.793
100.789
100.786
100.783
100.779
100.777
100.774
100.771
100.769
100.767
100.765
100.763
100.761
100.759
100.758
100.757
100.756
100.755
100.754
100.753
100.752
100.751
100.751
100.75
100.75
100.75
100.749
100.749
100.749
100.748
100.748
100.748
100.748
100.748
100.747
100.747
100.747
100.747
100.747
100.747
100.747
100.747
100.747
100.747
100.747
100.747
100.747
100.747
100.747
100.747
100.747
100.747
100.747
100.747
100.747
100.747
100.746
100.746
100.746
100.746
100.746
100.746
100.746
100.746
100.746
101.576
101.577
101.578
101.58
101.582
101.584
101.587
101.589
101.592
101.594
101.596
101.598
101.599
101.6
101.6
101.6
101.6
101.599
101.598
101.597
101.596
101.595
101.594
101.593
101.592
101.591
101.59
101.59
101.589
101.588
101.588
101.587
101.585
101.584
101.582
101.579
101.576
101.572
101.567
101.562
101.557
101.551
101.544
101.537
101.529
101.521
101.513
101.504
101.496
101.487
101.478
101.469
101.46
101.451
101.442
101.433
101.424
101.416
101.408
101.4
101.393
101.386
101.38
101.374
101.37
101.366
101.363
101.361
101.36
101.359
101.36
101.361
101.363
101.365
101.368
101.372
101.375
101.378
101.382
101.385
101.388
101.391
101.393
101.394
101.396
101.396
101.396
101.396
101.395
101.394
101.393
101.391
101.388
101.386
101.383
101.38
101.377
101.374
101.37
101.366
101.362
101.358
101.353
101.349
101.344
101.339
101.333
101.328
101.322
101.316
101.31
101.304
101.298
101.292
101.286
101.28
101.274
101.267
101.261
101.255
101.248
101.241
101.234
101.227
101.22
101.212
101.204
101.196
101.188
101.179
101.17
101.161
101.151
101.141
101.131
101.121
101.111
101.101
101.091
101.081
101.072
101.062
101.053
101.044
101.035
101.027
101.019
101.011
101.004
100.997
100.991
100.984
100.978
100.972
100.967
100.961
100.956
100.951
100.946
100.941
100.936
100.931
100.926
100.921
100.917
100.912
100.907
100.902
100.897
100.892
100.887
100.882
100.877
100.872
100.867
100.862
100.858
100.853
100.848
100.843
100.839
100.834
100.83
100.825
100.821
100.817
100.812
100.808
100.804
100.8
100.797
100.793
100.79
100.786
100.783
100.78
100.777
100.775
100.772
100.77
100.768
100.766
100.764
100.763
100.761
100.76
100.759
100.758
100.757
100.756
100.756
100.755
100.755
100.754
100.754
100.753
100.753
100.753
100.752
100.752
100.752
100.751
100.751
100.751
100.751
100.751
100.75
100.75
100.75
100.75
100.749
100.749
100.749
100.749
100.749
100.748
100.748
100.748
100.747
100.747
100.747
100.747
100.746
100.746
100.746
100.745
100.745
100.745
100.745
100.744
100.744
100.744
100.744
100.744
100.744
100.744
101.578
101.579
101.58
101.582
101.584
101.586
101.589
101.591
101.594
101.596
101.598
101.599
101.601
101.601
101.602
101.602
101.601
101.601
101.6
101.599
101.598
101.597
101.596
101.596
101.595
101.594
101.594
101.593
101.593
101.592
101.592
101.591
101.589
101.587
101.585
101.582
101.579
101.575
101.57
101.565
101.559
101.552
101.545
101.538
101.53
101.522
101.513
101.505
101.496
101.487
101.478
101.469
101.46
101.451
101.442
101.433
101.424
101.416
101.408
101.4
101.393
101.386
101.38
101.375
101.371
101.367
101.364
101.362
101.361
101.361
101.361
101.363
101.365
101.368
101.371
101.374
101.378
101.381
101.385
101.388
101.391
101.394
101.396
101.398
101.399
101.4
101.4
101.399
101.398
101.397
101.395
101.393
101.391
101.388
101.385
101.382
101.379
101.375
101.371
101.367
101.363
101.358
101.354
101.349
101.344
101.339
101.333
101.328
101.322
101.316
101.311
101.305
101.299
101.292
101.286
101.28
101.274
101.267
101.261
101.254
101.247
101.24
101.233
101.226
101.218
101.21
101.202
101.193
101.184
101.175
101.165
101.156
101.146
101.135
101.125
101.115
101.105
101.095
101.085
101.075
101.066
101.056
101.048
101.039
101.031
101.023
101.016
101.009
101.003
100.996
100.991
100.985
100.98
100.975
100.97
100.965
100.96
100.956
100.951
100.946
100.942
100.937
100.932
100.927
100.922
100.917
100.912
100.907
100.902
100.897
100.891
100.886
100.881
100.876
100.87
100.865
100.86
100.855
100.85
100.845
100.84
100.835
100.83
100.826
100.821
100.817
100.813
100.808
100.804
100.8
100.797
100.793
100.79
100.786
100.783
100.781
100.778
100.775
100.773
100.771
100.769
100.767
100.766
100.765
100.763
100.762
100.761
100.76
100.76
100.759
100.759
100.758
100.758
100.757
100.757
100.757
100.756
100.756
100.756
100.755
100.755
100.755
100.754
100.754
100.754
100.753
100.753
100.753
100.752
100.752
100.751
100.751
100.751
100.75
100.75
100.749
100.749
100.748
100.748
100.747
100.747
100.746
100.746
100.745
100.745
100.744
100.744
100.743
100.743
100.742
100.742
100.742
100.742
100.741
100.741
100.741
101.579
101.58
101.581
101.583
101.585
101.588
101.59
101.593
101.595
101.597
101.599
101.601
101.602
101.603
101.603
101.603
101.603
101.603
101.602
101.601
101.6
101.6
101.599
101.598
101.598
101.597
101.597
101.597
101.596
101.596
101.595
101.594
101.593
101.591
101.588
101.585
101.582
101.577
101.572
101.567
101.56
101.554
101.546
101.539
101.531
101.522
101.514
101.505
101.496
101.487
101.478
101.468
101.459
101.45
101.441
101.433
101.424
101.416
101.408
101.4
101.393
101.387
101.381
101.376
101.372
101.368
101.365
101.364
101.363
101.363
101.363
101.365
101.367
101.37
101.373
101.377
101.381
101.384
101.388
101.392
101.395
101.397
101.4
101.401
101.402
101.403
101.403
101.402
101.401
101.4
101.398
101.396
101.393
101.39
101.387
101.384
101.38
101.376
101.372
101.368
101.364
101.359
101.354
101.35
101.344
101.339
101.334
101.328
101.323
101.317
101.311
101.305
101.299
101.293
101.287
101.281
101.274
101.268
101.261
101.254
101.247
101.24
101.232
101.224
101.216
101.208
101.199
101.19
101.181
101.171
101.161
101.151
101.141
101.13
101.12
101.11
101.099
101.089
101.079
101.07
101.061
101.052
101.043
101.035
101.028
101.021
101.014
101.008
101.002
100.996
100.991
100.986
100.982
100.977
100.973
100.969
100.964
100.96
100.956
100.952
100.947
100.943
100.938
100.933
100.928
100.923
100.918
100.912
100.907
100.901
100.896
100.89
100.884
100.879
100.873
100.867
100.862
100.856
100.851
100.846
100.841
100.836
100.831
100.826
100.821
100.817
100.812
100.808
100.804
100.8
100.797
100.793
100.79
100.787
100.784
100.781
100.778
100.776
100.774
100.772
100.77
100.769
100.767
100.766
100.765
100.764
100.763
100.763
100.762
100.762
100.761
100.761
100.761
100.76
100.76
100.76
100.759
100.759
100.759
100.758
100.758
100.758
100.757
100.757
100.756
100.756
100.755
100.755
100.754
100.754
100.753
100.753
100.752
100.751
100.751
100.75
100.749
100.748
100.748
100.747
100.746
100.745
100.745
100.744
100.743
100.743
100.742
100.741
100.741
100.74
100.74
100.74
100.739
100.739
100.739
100.739
101.581
101.581
101.583
101.584
101.586
101.589
101.591
101.593
101.596
101.598
101.6
101.601
101.603
101.603
101.604
101.604
101.604
101.604
101.604
101.603
101.602
101.602
101.602
101.601
101.601
101.601
101.6
101.6
101.6
101.599
101.598
101.597
101.596
101.594
101.591
101.588
101.584
101.579
101.574
101.568
101.562
101.555
101.547
101.539
101.531
101.522
101.514
101.505
101.495
101.486
101.477
101.468
101.459
101.45
101.441
101.432
101.424
101.415
101.408
101.4
101.393
101.387
101.382
101.377
101.372
101.369
101.367
101.365
101.364
101.365
101.366
101.367
101.37
101.373
101.376
101.38
101.384
101.387
101.391
101.395
101.398
101.401
101.403
101.404
101.406
101.406