# vtk DataFile Version 2.0
HPC Tutorials: Michael Bader, Kaveh Rahnema, Oliver Meister
ASCII
DATASET RECTILINEAR_GRID
DIMENSIONS 257 257 1
X_COORDINATES 257 float
0
0.005
0.01
0.015
0.02
0.025
0.03
0.035
0.04
0.045
0.05
0.055
0.06
0.065
0.07
0.075
0.08
0.085
0.09
0.095
0.1
0.105
0.11
0.115
0.12
0.125
0.13
0.135
0.14
0.145
0.15
0.155
0.16
0.165
0.17
0.175
0.18
0.185
0.19
0.195
0.2
0.205
0.21
0.215
0.22
0.225
0.23
0.235
0.24
0.245
0.25
0.255
0.26
0.265
0.27
0.275
0.28
0.285
0.29
0.295
0.3
0.305
0.31
0.315
0.32
0.325
0.33
0.335
0.34
0.345
0.35
0.355
0.36
0.365
0.37
0.375
0.38
0.385
0.39
0.395
0.4
0.405
0.41
0.415
0.42
0.425
0.43
0.435
0.44
0.445
0.45
0.455
0.46
0.465
0.47
0.475
0.48
0.485
0.49
0.495
0.5
0.505
0.51
0.515
0.52
0.525
0.53
0.535
0.54
0.545
0.55
0.555
0.56
0.565
0.57
0.575
0.58
0.585
0.59
0.595
0.6
0.605
0.61
0.615
0.62
0.625
0.63
0.635
0.64
0.645
0.65
0.655
0.66
0.665
0.67
0.675
0.68
0.685
0.69
0.695
0.7
0.705
0.71
0.715
0.72
0.725
0.73
0.735
0.74
0.745
0.75
0.755
0.76
0.765
0.77
0.775
0.78
0.785
0.79
0.795
0.8
0.805
0.81
0.815
0.82
0.825
0.83
0.835
0.84
0.845
0.85
0.855
0.86
0.865
0.87
0.875
0.88
0.885
0.89
0.895
0.9
0.905
0.91
0.915
0.92
0.925
0.93
0.935
0.94
0.945
0.95
0.955
0.96
0.965
0.97
0.975
0.98
0.985
0.99
0.995
1
1.005
1.01
1.015
1.02
1.025
1.03
1.035
1.04
1.045
1.05
1.055
1.06
1.065
1.07
1.075
1.08
1.085
1.09
1.095
1.1
1.105
1.11
1.115
1.12
1.125
1.13
1.135
1.14
1.145
1.15
1.155
1.16
1.165
1.17
1.175
1.18
1.185
1.19
1.195
1.2
1.205
1.21
1.215
1.22
1.225
1.23
1.235
1.24
1.245
1.25
1.255
1.26
1.265
1.27
1.275
1.28
Y_COORDINATES 257 float
0
0.005
0.01
0.015
0.02
0.025
0.03
0.035
0.04
0.045
0.05
0.055
0.06
0.065
0.07
0.075
0.08
0.085
0.09
0.095
0.1
0.105
0.11
0.115
0.12
0.125
0.13
0.135
0.14
0.145
0.15
0.155
0.16
0.165
0.17
0.175
0.18
0.185
0.19
0.195
0.2
0.205
0.21
0.215
0.22
0.225
0.23
0.235
0.24
0.245
0.25
0.255
0.26
0.265
0.27
0.275
0.28
0.285
0.29
0.295
0.3
0.305
0.31
0.315
0.32
0.325
0.33
0.335
0.34
0.345
0.35
0.355
0.36
0.365
0.37
0.375
0.38
0.385
0.39
0.395
0.4
0.405
0.41
0.415
0.42
0.425
0.43
0.435
0.44
0.445
0.45
0.455
0.46
0.465
0.47
0.475
0.48
0.485
0.49
0.495
0.5
0.505
0.51
0.515
0.52
0.525
0.53
0.535
0.54
0.545
0.55
0.555
0.56
0.565
0.57
0.575
0.58
0.585
0.59
0.595
0.6
0.605
0.61
0.615
0.62
0.625
0.63
0.635
0.64
0.645
0.65
0.655
0.66
0.665
0.67
0.675
0.68
0.685
0.69
0.695
0.7
0.705
0.71
0.715
0.72
0.725
0.73
0.735
0.74
0.745
0.75
0.755
0.76
0.765
0.77
0.775
0.78
0.785
0.79
0.795
0.8
0.805
0.81
0.815
0.82
0.825
0.83
0.835
0.84
0.845
0.85
0.855
0.86
0.865
0.87
0.875
0.88
0.885
0.89
0.895
0.9
0.905
0.91
0.915
0.92
0.925
0.93
0.935
0.94
0.945
0.95
0.955
0.96
0.965
0.97
0.975
0.98
0.985
0.99
0.995
1
1.005
1.01
1.015
1.02
1.025
1.03
1.035
1.04
1.045
1.05
1.055
1.06
1.065
1.07
1.075
1.08
1.085
1.09
1.095
1.1
1.105
1.11
1.115
1.12
1.125
1.13
1.135
1.14
1.145
1.15
1.155
1.16
1.165
1.17
1.175
1.18
1.185
1.19
1.195
1.2
1.205
1.21
1.215
1.22
1.225
1.23
1.235
1.24
1.245
1.25
1.255
1.26
1.265
1.27
1.275
1.28
Z_COORDINATES 1 float
0
CELL_DATA 65536
SCALARS H float 1
LOOKUP_TABLE default
101.764
101.763
101.763
101.762
101.761
101.759
101.757
101.755
101.753
101.75
101.748
101.745
101.743
101.74
101.738
101.735
101.733
101.732
101.73
101.73
101.73
101.731
101.734
101.737
101.743
101.75
101.759
101.772
101.787
101.805
101.826
101.85
101.877
101.906
101.937
101.967
101.995
102.021
102.042
102.057
102.064
102.063
102.053
102.034
102.007
101.972
101.931
101.886
101.836
101.784
101.731
101.678
101.625
101.573
101.524
101.476
101.432
101.39
101.351
101.315
101.283
101.254
101.229
101.207
101.19
101.176
101.167
101.162
101.162
101.166
101.175
101.188
101.205
101.226
101.251
101.278
101.308
101.34
101.373
101.407
101.439
101.471
101.501
101.528
101.553
101.575
101.594
101.61
101.623
101.633
101.64
101.645
101.647
101.648
101.647
101.645
101.641
101.635
101.629
101.62
101.611
101.601
101.589
101.576
101.561
101.546
101.529
101.512
101.493
101.474
101.454
101.433
101.412
101.391
101.37
101.348
101.327
101.306
101.286
101.266
101.247
101.228
101.211
101.194
101.179
101.165
101.152
101.14
101.129
101.119
101.111
101.104
101.098
101.093
101.089
101.086
101.084
101.083
101.082
101.082
101.083
101.084
101.085
101.087
101.089
101.091
101.093
101.095
101.097
101.099
101.101
101.103
101.105
101.107
101.109
101.11
101.112
101.113
101.115
101.116
101.118
101.119
101.121
101.122
101.124
101.125
101.127
101.128
101.13
101.131
101.133
101.134
101.136
101.137
101.138
101.139
101.141
101.141
101.142
101.143
101.144
101.144
101.144
101.144
101.144
101.143
101.143
101.141
101.14
101.138
101.136
101.133
101.13
101.126
101.122
101.117
101.112
101.106
101.1
101.093
101.086
101.078
101.07
101.062
101.054
101.045
101.036
101.027
101.019
101.01
101.002
100.994
100.986
100.979
100.972
100.966
100.96
100.955
100.951
100.947
100.944
100.941
100.94
100.938
100.937
100.937
100.937
100.938
100.939
100.94
100.941
100.943
100.945
100.946
100.948
100.95
100.952
100.954
100.955
100.957
100.958
100.96
100.961
100.962
100.963
100.963
100.964
100.965
100.965
100.965
100.966
100.966
100.966
100.966
100.966
100.966
101.763
101.763
101.762
101.761
101.76
101.758
101.757
101.755
101.752
101.75
101.748
101.745
101.742
101.74
101.737
101.735
101.733
101.732
101.731
101.731
101.731
101.732
101.735
101.739
101.745
101.753
101.763
101.775
101.791
101.809
101.83
101.854
101.881
101.908
101.937
101.965
101.991
102.014
102.032
102.044
102.049
102.046
102.035
102.017
101.99
101.957
101.918
101.875
101.827
101.778
101.727
101.675
101.624
101.574
101.526
101.48
101.436
101.395
101.356
101.321
101.29
101.261
101.237
101.216
101.199
101.186
101.177
101.173
101.173
101.177
101.186
101.198
101.215
101.235
101.259
101.285
101.314
101.344
101.375
101.406
101.437
101.467
101.495
101.521
101.545
101.567
101.585
101.601
101.614
101.625
101.633
101.639
101.642
101.644
101.643
101.642
101.638
101.633
101.627
101.619
101.61
101.6
101.588
101.575
101.561
101.545
101.529
101.511
101.493
101.474
101.454
101.433
101.412
101.391
101.37
101.348
101.327
101.306
101.286
101.266
101.247
101.228
101.211
101.194
101.179
101.164
101.151
101.139
101.128
101.119
101.11
101.103
101.097
101.092
101.088
101.085
101.083
101.082
101.081
101.081
101.082
101.083
101.084
101.086
101.088
101.09
101.092
101.094
101.097
101.099
101.101
101.103
101.105
101.106
101.108
101.11
101.111
101.113
101.115
101.116
101.118
101.119
101.12
101.122
101.123
101.125
101.126
101.128
101.129
101.131
101.132
101.134
101.135
101.136
101.138
101.139
101.14
101.141
101.142
101.143
101.143
101.144
101.144
101.144
101.143
101.143
101.142
101.141
101.14
101.138
101.135
101.133
101.129
101.126
101.122
101.117
101.112
101.106
101.1
101.093
101.086
101.078
101.07
101.062
101.054
101.045
101.036
101.028
101.019
101.01
101.002
100.994
100.986
100.979
100.972
100.966
100.961
100.955
100.951
100.947
100.944
100.941
100.94
100.938
100.937
100.937
100.937
100.938
100.938
100.94
100.941
100.943
100.944
100.946
100.948
100.95
100.952
100.953
100.955
100.956
100.958
100.959
100.96
100.961
100.962
100.963
100.964
100.964
100.964
100.965
100.965
100.965
100.965
100.966
100.966
100.966
101.762
101.762
101.761
101.76
101.759
101.758
101.756
101.754
101.752
101.749
101.747
101.744
101.742
101.74
101.737
101.735
101.734
101.732
101.732
101.732
101.733
101.735
101.738
101.743
101.749
101.758
101.768
101.782
101.798
101.816
101.837
101.86
101.885
101.91
101.936
101.96
101.982
102
102.014
102.022
102.024
102.02
102.008
101.99
101.965
101.934
101.898
101.858
101.815
101.768
101.721
101.672
101.624
101.576
101.53
101.485
101.443
101.403
101.366
101.332
101.301
101.274
101.25
101.23
101.214
101.202
101.194
101.19
101.19
101.194
101.203
101.215
101.23
101.249
101.271
101.295
101.32
101.348
101.376
101.404
101.432
101.459
101.486
101.51
101.533
101.553
101.572
101.588
101.602
101.613
101.622
101.629
101.634
101.637
101.638
101.637
101.634
101.63
101.624
101.617
101.608
101.598
101.586
101.573
101.559
101.544
101.528
101.51
101.492
101.473
101.453
101.432
101.412
101.391
101.369
101.348
101.327
101.306
101.286
101.266
101.247
101.228
101.211
101.194
101.178
101.164
101.151
101.139
101.128
101.118
101.109
101.102
101.096
101.091
101.087
101.084
101.082
101.08
101.08
101.08
101.08
101.081
101.083
101.085
101.086
101.089
101.091
101.093
101.095
101.097
101.099
101.101
101.103
101.105
101.107
101.109
101.111
101.112
101.114
101.115
101.117
101.118
101.12
101.121
101.123
101.124
101.126
101.127
101.129
101.13
101.132
101.133
101.134
101.136
101.137
101.138
101.139
101.14
101.141
101.142
101.142
101.143
101.143
101.143
101.143
101.142
101.141
101.14
101.139
101.137
101.135
101.132
101.129
101.125
101.121
101.117
101.111
101.106
101.1
101.093
101.086
101.078
101.07
101.062
101.054
101.045
101.036
101.028
101.019
101.011
101.002
100.994
100.987
100.979
100.973
100.966
100.961
100.956
100.951
100.947
100.944
100.941
100.939
100.938
100.937
100.937
100.937
100.937
100.938
100.939
100.94
100.942
100.944
100.945
100.947
100.949
100.951
100.952
100.954
100.956
100.957
100.958
100.959
100.96
100.961
100.962
100.963
100.963
100.964
100.964
100.964
100.964
100.965
100.965
100.965
100.965
101.761
101.761
101.76
101.759
101.758
101.756
101.755
101.753
101.751
101.748
101.746
101.744
101.742
101.739
101.737
101.736
101.734
101.733
101.733
101.734
101.735
101.738
101.742
101.748
101.755
101.765
101.777
101.791
101.807
101.826
101.846
101.867
101.89
101.912
101.933
101.952
101.968
101.981
101.989
101.992
101.991
101.984
101.971
101.953
101.931
101.903
101.871
101.835
101.796
101.755
101.711
101.667
101.622
101.578
101.535
101.492
101.452
101.414
101.379
101.347
101.318
101.292
101.269
101.251
101.236
101.225
101.217
101.214
101.215
101.219
101.226
101.237
101.251
101.268
101.287
101.308
101.33
101.353
101.377
101.402
101.426
101.45
101.473
101.495
101.516
101.536
101.554
101.57
101.584
101.597
101.607
101.615
101.622
101.626
101.628
101.629
101.628
101.624
101.619
101.613
101.605
101.595
101.584
101.571
101.557
101.542
101.526
101.509
101.491
101.472
101.452
101.432
101.411
101.39
101.369
101.348
101.327
101.306
101.285
101.266
101.246
101.228
101.21
101.194
101.178
101.163
101.15
101.138
101.127
101.117
101.108
101.101
101.094
101.089
101.085
101.082
101.08
101.078
101.078
101.078
101.078
101.079
101.081
101.082
101.084
101.086
101.089
101.091
101.093
101.095
101.098
101.1
101.102
101.104
101.106
101.108
101.109
101.111
101.113
101.114
101.116
101.117
101.119
101.12
101.122
101.123
101.125
101.126
101.128
101.129
101.131
101.132
101.133
101.134
101.136
101.137
101.138
101.139
101.14
101.14
101.141
101.141
101.142
101.142
101.142
101.141
101.141
101.139
101.138
101.136
101.134
101.131
101.128
101.125
101.121
101.116
101.111
101.105
101.099
101.093
101.085
101.078
101.07
101.062
101.054
101.045
101.036
101.028
101.019
101.011
101.002
100.994
100.987
100.979
100.973
100.966
100.961
100.956
100.951
100.947
100.944
100.941
100.939
100.938
100.937
100.936
100.936
100.937
100.938
100.939
100.94
100.941
100.943
100.945
100.946
100.948
100.95
100.952
100.953
100.955
100.956
100.957
100.958
100.959
100.96
100.961
100.962
100.962
100.963
100.963
100.963
100.963
100.964
100.964
100.964
100.964
101.759
101.759
101.758
101.757
101.756
101.755
101.753
101.751
101.749
101.747
101.745
101.743
101.741
101.739
101.737
101.736
101.735
101.735
101.735
101.736
101.739
101.742
101.747
101.754
101.763
101.774
101.787
101.802
101.818
101.837
101.856
101.875
101.894
101.911
101.927
101.94
101.949
101.955
101.957
101.955
101.95
101.94
101.927
101.91
101.889
101.865
101.837
101.806
101.773
101.737
101.699
101.66
101.62
101.58
101.54
101.501
101.464
101.429
101.396
101.366
101.339
101.315
101.294
101.277
101.263
101.254
101.247
101.245
101.245
101.249
101.256
101.265
101.277
101.291
101.306
101.323
101.341
101.36
101.379
101.399
101.419
101.439
101.459
101.478
101.497
101.515
101.532
101.549
101.563
101.577
101.588
101.598
101.606
101.612
101.616
101.618
101.618
101.617
101.613
101.607
101.6
101.591
101.58
101.568
101.555
101.54
101.524
101.507
101.489
101.47
101.451
101.431
101.41
101.389
101.368
101.347
101.326
101.306
101.285
101.265
101.246
101.228
101.21
101.193
101.177
101.163
101.149
101.137
101.125
101.115
101.107
101.099
101.092
101.087
101.083
101.079
101.077
101.076
101.075
101.075
101.075
101.076
101.078
101.079
101.081
101.083
101.086
101.088
101.091
101.093
101.095
101.098
101.1
101.102
101.104
101.106
101.108
101.11
101.111
101.113
101.115
101.116
101.118
101.119
101.121
101.122
101.124
101.125
101.126
101.128
101.129
101.13
101.132
101.133
101.134
101.135
101.136
101.137
101.138
101.139
101.14
101.14
101.14
101.14
101.14
101.14
101.139
101.138
101.137
101.135
101.133
101.13
101.127
101.124
101.12
101.115
101.11
101.104
101.098
101.092
101.085
101.077
101.07
101.062
101.053
101.045
101.036
101.027
101.019
101.01
101.002
100.994
100.987
100.979
100.973
100.966
100.961
100.956
100.951
100.947
100.944
100.941
100.939
100.938
100.937
100.936
100.936
100.936
100.937
100.938
100.939
100.941
100.942
100.944
100.946
100.947
100.949
100.951
100.952
100.954
100.955
100.956
100.957
100.958
100.959
100.96
100.961
100.961
100.962
100.962
100.962
100.962
100.963
100.963
100.963
100.963
101.757
101.757
101.756
101.755
101.754
101.753
101.751
101.75
101.748
101.746
101.744
101.742
101.74
101.739
101.738
101.737
101.736
101.737
101.738
101.74
101.743
101.748
101.755
101.763
101.773
101.785
101.799
101.814
101.831
101.848
101.865
101.881
101.896
101.908
101.917
101.923
101.926
101.925
101.92
101.913
101.904
101.891
101.877
101.861
101.842
101.821
101.798
101.772
101.744
101.714
101.683
101.649
101.615
101.58
101.545
101.511
101.477
101.446
101.416
101.389
101.364
101.342
101.324
101.309
101.297
101.288
101.283
101.281
101.281
101.284
101.29
101.297
101.306
101.316
101.328
101.341
101.354
101.368
101.382
101.397
101.412
101.428
101.444
101.46
101.476
101.493
101.509
101.525
101.54
101.554
101.566
101.578
101.587
101.595
101.601
101.605
101.606
101.606
101.604
101.599
101.593
101.585
101.575
101.564
101.551
101.537
101.521
101.505
101.487
101.469
101.449
101.429
101.409
101.388
101.368
101.347
101.326
101.305
101.285
101.265
101.246
101.227
101.209
101.193
101.177
101.162
101.148
101.135
101.124
101.114
101.105
101.097
101.09
101.084
101.08
101.076
101.074
101.072
101.071
101.071
101.072
101.073
101.074
101.076
101.078
101.08
101.082
101.085
101.087
101.09
101.093
101.095
101.097
101.1
101.102
101.104
101.106
101.108
101.11
101.111
101.113
101.115
101.116
101.118
101.119
101.121
101.122
101.123
101.125
101.126
101.128
101.129
101.13
101.131
101.133
101.134
101.135
101.136
101.137
101.137
101.138
101.139
101.139
101.139
101.139
101.138
101.138
101.137
101.135
101.134
101.132
101.129
101.126
101.122
101.118
101.114
101.109
101.103
101.097
101.091
101.084
101.076
101.069
101.061
101.052
101.044
101.035
101.027
101.018
101.01
101.002
100.994
100.986
100.979
100.972
100.966
100.961
100.956
100.951
100.947
100.944
100.941
100.939
100.937
100.936
100.936
100.936
100.936
100.937
100.937
100.939
100.94
100.941
100.943
100.945
100.946
100.948
100.95
100.951
100.953
100.954
100.955
100.956
100.957
100.958
100.959
100.959
100.96
100.96
100.961
100.961
100.961
100.961
100.962
100.962
100.962
101.755
101.754
101.754
101.753
101.752
101.751
101.749
101.748
101.746
101.744
101.743
101.741
101.74
101.739
101.738
101.738
101.738
101.739
101.741
101.744
101.749
101.755
101.763
101.773
101.785
101.798
101.812
101.828
101.844
101.859
101.873
101.885
101.895
101.901
101.903
101.902
101.897
101.89
101.879
101.867
101.854
101.839
101.824
101.808
101.791
101.773
101.754
101.734
101.712
101.688
101.663
101.636
101.608
101.579
101.549
101.52
101.491
101.464
101.438
101.415
101.393
101.375
101.359
101.346
101.336
101.328
101.324
101.322
101.322
101.324
101.327
101.332
101.338
101.344
101.352
101.359
101.368
101.376
101.385
101.395
101.406
101.417
101.429
101.442
101.456
101.47
101.485
101.5
101.514
101.528
101.542
101.554
101.565
101.575
101.582
101.588
101.591
101.593
101.592
101.589
101.584
101.578
101.569
101.559
101.547
101.533
101.518
101.502
101.485
101.467
101.448
101.428
101.408
101.387
101.367
101.346
101.325
101.305
101.284
101.264
101.245
101.227
101.209
101.192
101.176
101.161
101.147
101.134
101.122
101.112
101.102
101.094
101.087
101.082
101.077
101.073
101.07
101.068
101.067
101.067
101.067
101.068
101.07
101.072
101.074
101.076
101.079
101.081
101.084
101.087
101.089
101.092
101.094
101.097
101.099
101.101
101.103
101.105
101.107
101.109
101.111
101.113
101.114
101.116
101.117
101.119
101.12
101.122
101.123
101.124
101.126
101.127
101.128
101.13
101.131
101.132
101.133
101.134
101.135
101.136
101.136
101.137
101.137
101.137
101.137
101.137
101.136
101.135
101.134
101.132
101.13
101.127
101.124
101.12
101.116
101.112
101.107
101.101
101.095
101.089
101.082
101.075
101.067
101.059
101.051
101.043
101.034
101.026
101.017
101.009
101.001
100.993
100.986
100.979
100.972
100.966
100.96
100.955
100.951
100.947
100.943
100.941
100.939
100.937
100.936
100.935
100.935
100.935
100.936
100.937
100.938
100.939
100.94
100.942
100.944
100.945
100.947
100.948
100.95
100.951
100.953
100.954
100.955
100.956
100.957
100.957
100.958
100.959
100.959
100.959
100.96
100.96
100.96
100.96
100.96
100.96
101.752
101.752
101.751
101.75
101.749
101.748
101.747
101.746
101.744
101.743
101.741
101.74
101.739
101.739
101.739
101.739
101.74
101.742
101.745
101.75
101.756
101.764
101.773
101.785
101.798
101.812
101.826
101.841
101.856
101.868
101.879
101.886
101.89
101.889
101.885
101.876
101.865
101.851
101.836
101.819
101.802
101.786
101.769
101.754
101.738
101.723
101.708
101.692
101.676
101.658
101.639
101.619
101.597
101.575
101.552
101.529
101.506
101.484
101.463
101.443
101.426
101.41
101.397
101.387
101.378
101.372
101.368
101.366
101.365
101.366
101.367
101.369
101.371
101.374
101.377
101.379
101.382
101.386
101.39
101.395
101.401
101.408
101.416
101.425
101.436
101.448
101.461
101.474
101.488
101.502
101.516
101.528
101.54
101.551
101.56
101.568
101.573
101.576
101.577
101.576
101.573
101.568
101.561
101.551
101.54
101.528
101.514
101.498
101.482
101.464
101.445
101.426
101.406
101.386
101.366
101.345
101.324
101.304
101.283
101.264
101.244
101.226
101.208
101.191
101.174
101.159
101.145
101.132
101.12
101.11
101.1
101.092
101.084
101.078
101.073
101.069
101.066
101.064
101.063
101.063
101.063
101.064
101.065
101.067
101.069
101.071
101.074
101.077
101.08
101.082
101.085
101.088
101.091
101.093
101.096
101.098
101.101
101.103
101.105
101.107
101.109
101.11
101.112
101.114
101.115
101.117
101.118
101.12
101.121
101.122
101.124
101.125
101.126
101.128
101.129
101.13
101.131
101.132
101.133
101.134
101.134
101.135
101.135
101.135
101.135
101.135
101.134
101.133
101.131
101.13
101.127
101.125
101.122
101.118
101.114
101.11
101.105
101.099
101.093
101.087
101.08
101.073
101.065
101.057
101.049
101.041
101.033
101.024
101.016
101.008
101
100.992
100.985
100.978
100.971
100.965
100.959
100.954
100.95
100.946
100.943
100.94
100.938
100.936
100.935
100.934
100.934
100.934
100.935
100.935
100.936
100.938
100.939
100.94
100.942
100.944
100.945
100.947
100.948
100.949
100.951
100.952
100.953
100.954
100.955
100.955
100.956
100.957
100.957
100.957
100.958
100.958
100.958
100.958
100.958
100.958
101.749
101.749
101.748
101.748
101.747
101.746
101.745
101.743
101.742
101.741
101.74
101.74
101.739
101.739
101.74
101.741
101.743
101.746
101.751
101.757
101.765
101.774
101.785
101.798
101.811
101.826
101.84
101.854
101.866
101.875
101.88
101.882
101.879
101.872
101.861
101.846
101.829
101.81
101.79
101.77
101.75
101.732
101.715
101.699
101.685
101.672
101.66
101.649
101.637
101.625
101.613
101.599
101.584
101.569
101.553
101.536
101.52
101.504
101.488
101.474
101.46
101.449
101.439
101.431
101.425
101.42
101.416
101.413
101.411
101.41
101.409
101.407
101.406
101.404
101.402
101.4
101.398
101.397
101.396
101.397
101.398
101.401
101.405
101.411
101.419
101.428
101.438
101.45
101.462
101.475
101.488
101.501
101.514
101.525
101.536
101.544
101.551
101.556
101.559
101.56
101.559
101.555
101.55
101.542
101.532
101.521
101.508
101.494
101.478
101.461
101.443
101.424
101.405
101.385
101.364
101.344
101.323
101.303
101.283
101.263
101.243
101.225
101.207
101.189
101.173
101.158
101.143
101.13
101.118
101.107
101.097
101.089
101.081
101.075
101.07
101.065
101.062
101.06
101.059
101.058
101.058
101.059
101.06
101.062
101.064
101.066
101.069
101.072
101.075
101.078
101.081
101.084
101.087
101.089
101.092
101.095
101.097
101.1
101.102
101.104
101.106
101.108
101.109
101.111
101.113
101.114
101.116
101.117
101.119
101.12
101.122
101.123
101.124
101.125
101.127
101.128
101.129
101.13
101.131
101.131
101.132
101.132
101.133
101.133
101.133
101.132
101.131
101.13
101.129
101.127
101.125
101.122
101.119
101.115
101.111
101.107
101.102
101.096
101.09
101.084
101.077
101.07
101.063
101.055
101.047
101.039
101.03
101.022
101.014
101.006
100.998
100.991
100.983
100.976
100.97
100.964
100.958
100.953
100.949
100.945
100.941
100.939
100.936
100.935
100.933
100.933
100.932
100.932
100.933
100.933
100.934
100.935
100.937
100.938
100.94
100.941
100.943
100.944
100.945
100.947
100.948
100.949
100.95
100.951
100.952
100.953
100.953
100.954
100.954
100.954
100.955
100.955
100.955
100.955
100.955
100.955
101.746
101.746
101.745
101.745
101.744
101.743
101.742
101.741
101.74
101.74
101.739
101.739
101.739
101.74
101.741
101.744
101.747
101.752
101.758
101.765
101.775
101.786
101.798
101.812
101.826
101.84
101.853
101.864
101.872
101.877
101.877
101.873
101.864
101.85
101.833
101.813
101.791
101.767
101.744
101.721
101.699
101.679
101.661
101.646
101.633
101.622
101.612
101.604
101.597
101.59
101.583
101.576
101.569
101.561
101.552
101.542
101.533
101.523
101.514
101.505
101.497
101.489
101.483
101.477
101.473
101.469
101.465
101.462
101.458
101.455
101.451
101.446
101.44
101.434
101.428
101.422
101.416
101.41
101.405
101.401
101.398
101.397
101.398
101.4
101.404
101.41
101.418
101.427
101.438
101.449
101.461
101.474
101.486
101.498
101.509
101.519
101.527
101.534
101.539
101.541
101.542
101.54
101.536
101.53
101.522
101.512
101.501
101.487
101.473
101.456
101.439
101.421
101.402
101.383
101.363
101.342
101.322
101.302
101.281
101.262
101.242
101.223
101.205
101.188
101.171
101.156
101.141
101.128
101.116
101.104
101.094
101.085
101.078
101.071
101.066
101.061
101.058
101.055
101.054
101.053
101.053
101.053
101.055
101.056
101.058
101.061
101.063
101.066
101.069
101.073
101.076
101.079
101.082
101.085
101.088
101.091
101.093
101.096
101.098
101.101
101.103
101.105
101.107
101.109
101.11
101.112
101.114
101.115
101.117
101.118
101.119
101.121
101.122
101.123
101.124
101.126
101.127
101.127
101.128
101.129
101.13
101.13
101.13
101.13
101.13
101.129
101.129
101.128
101.126
101.124
101.122
101.119
101.116
101.112
101.108
101.104
101.099
101.093
101.087
101.081
101.074
101.067
101.06
101.052
101.044
101.036
101.028
101.02
101.012
101.004
100.996
100.988
100.981
100.974
100.968
100.962
100.956
100.951
100.947
100.943
100.939
100.936
100.934
100.932
100.931
100.93
100.93
100.93
100.93
100.93
100.931
100.932
100.933
100.935
100.936
100.937
100.939
100.94
100.941
100.943
100.944
100.945
100.946
100.947
100.948
100.948
100.949
100.95
100.95
100.95
100.951
100.951
100.951
100.951
100.951
100.951
101.743
101.742
101.742
101.742
101.741
101.74
101.74
101.739
101.739
101.738
101.738
101.739
101.74
101.741
101.744
101.747
101.752
101.758
101.766
101.775
101.786
101.798
101.812
101.826
101.84
101.852
101.863
101.871
101.875
101.874
101.868
101.858
101.843
101.824
101.801
101.776
101.75
101.724
101.697
101.672
101.649
101.628
101.61
101.595
101.582
101.572
101.565
101.56
101.557
101.554
101.553
101.552
101.551
101.55
101.548
101.546
101.544
101.541
101.539
101.536
101.533
101.53
101.527
101.524
101.522
101.518
101.515
101.51
101.505
101.499
101.492
101.484
101.475
101.465
101.455
101.444
101.434
101.424
101.415
101.408
101.401
101.396
101.393
101.392
101.393
101.396
101.4
101.407
101.415
101.425
101.435
101.446
101.458
101.47
101.481
101.491
101.501
101.509
101.515
101.519
101.522
101.522
101.52
101.516
101.51
101.501
101.491
101.479
101.466
101.451
101.435
101.417
101.399
101.38
101.36
101.34
101.32
101.3
101.28
101.26
101.241
101.222
101.204
101.186
101.17
101.154
101.139
101.125
101.113
101.101
101.091
101.082
101.074
101.067
101.061
101.057
101.053
101.05
101.049
101.048
101.047
101.048
101.049
101.05
101.052
101.055
101.058
101.061
101.064
101.067
101.07
101.073
101.077
101.08
101.083
101.086
101.089
101.092
101.095
101.097
101.099
101.102
101.104
101.106
101.108
101.109
101.111
101.113
101.114
101.116
101.117
101.118
101.12
101.121
101.122
101.123
101.124
101.125
101.126
101.126
101.127
101.127
101.127
101.127
101.127
101.127
101.126
101.124
101.123
101.121
101.119
101.116
101.113
101.109
101.105
101.1
101.095
101.09
101.084
101.077
101.071
101.064
101.056
101.049
101.041
101.033
101.025
101.017
101.009
101.001
100.993
100.985
100.978
100.971
100.965
100.959
100.953
100.948
100.944
100.94
100.936
100.933
100.931
100.929
100.927
100.926
100.926
100.926
100.926
100.926
100.927
100.928
100.929
100.93
100.931
100.932
100.934
100.935
100.936
100.937
100.939
100.94
100.941
100.941
100.942
100.943
100.943
100.944
100.944
100.945
100.945
100.945
100.945
100.946
100.946
100.946
101.739
101.739
101.739
101.739
101.738
101.738
101.737
101.737
101.737
101.737
101.738
101.739
101.741
101.743
101.747
101.752
101.758
101.766
101.775
101.786
101.798
101.812
101.826
101.84
101.852
101.863
101.87
101.873
101.872
101.865
101.854
101.838
101.817
101.793
101.766
101.738
101.709
101.68
101.652
101.626
101.602
101.58
101.562
101.547
101.535
101.526
101.52
101.517
101.517
101.519
101.522
101.527
101.532
101.537
101.543
101.548
101.553
101.558
101.562
101.565
101.568
101.57
101.571
101.571
101.57
101.567
101.563
101.558
101.551
101.542
101.532
101.521
101.509
101.495
101.482
101.468
101.454
101.441
101.428
101.417
101.407
101.399
101.392
101.388
101.385
101.385
101.387
101.39
101.396
101.403
101.411
101.421
101.431
101.442
101.452
101.463
101.473
101.481
101.489
101.495
101.499
101.501
101.501
101.499
101.494
101.488
101.479
101.469
101.457
101.443
101.428
101.412
101.394
101.376
101.357
101.338
101.318
101.298
101.278
101.258
101.239
101.22
101.202
101.184
101.167
101.152
101.137
101.123
101.11
101.098
101.088
101.078
101.07
101.063
101.057
101.052
101.048
101.045
101.043
101.042
101.042
101.042
101.043
101.044
101.046
101.049
101.051
101.054
101.057
101.061
101.064
101.068
101.071
101.075
101.078
101.081
101.084
101.087
101.09
101.093
101.096
101.098
101.1
101.102
101.104
101.106
101.108
101.11
101.111
101.113
101.114
101.116
101.117
101.118
101.119
101.12
101.121
101.122
101.123
101.123
101.124
101.124
101.124
101.124
101.124
101.123
101.122
101.121
101.119
101.117
101.115
101.112
101.109
101.105
101.101
101.097
101.091
101.086
101.08
101.074
101.067
101.06
101.052
101.045
101.037
101.029
101.021
101.013
101.005
100.997
100.989
100.982
100.975
100.968
100.961
100.955
100.95
100.944
100.94
100.936
100.932
100.929
100.926
100.924
100.923
100.922
100.921
100.92
100.92
100.921
100.921
100.922
100.923
100.924
100.925
100.926
100.927
100.928
100.93
100.931
100.932
100.933
100.934
100.934
100.935
100.936
100.936
100.937
100.937
100.938
100.938
100.938
100.938
100.938
100.938
100.939
101.736
101.736
101.736
101.736
101.735
101.735
101.735
101.735
101.736
101.737
101.738
101.74
101.742
101.746
101.751
101.757
101.765
101.775
101.786
101.798
101.812
101.826
101.839
101.852
101.862
101.869
101.872
101.87
101.863
101.851
101.834
101.812
101.787
101.759
101.729
101.698
101.667
101.637
101.608
101.581
101.557
101.535
101.517
101.502
101.49
101.482
101.478
101.477
101.479
101.484
101.492
101.501
101.512
101.524
101.536
101.549
101.561
101.572
101.583
101.593
101.601
101.607
101.612
101.614
101.615
101.613
101.609
101.603
101.594
101.584
101.571
101.557
101.542
101.526
101.509
101.492
101.475
101.459
101.444
101.429
101.416
101.405
101.395
101.388
101.382
101.378
101.377
101.377
101.38
101.384
101.39
101.397
101.406
101.415
101.424
101.434
101.444
101.453
101.461
101.468
101.473
101.477
101.479
101.478
101.476
101.471
101.465
101.456
101.446
101.434
101.42
101.405
101.389
101.371
101.353
101.334
101.315
101.295
101.276
101.256
101.237
101.218
101.2
101.182
101.165
101.149
101.134
101.12
101.107
101.095
101.084
101.075
101.066
101.059
101.053
101.047
101.043
101.04
101.038
101.036
101.036
101.036
101.036
101.038
101.04
101.042
101.045
101.048
101.051
101.055
101.058
101.062
101.065
101.069
101.073
101.076
101.08
101.083
101.086
101.089
101.092
101.094
101.097
101.099
101.101
101.103
101.105
101.107
101.108
101.11
101.111
101.113
101.114
101.115
101.116
101.117
101.118
101.119
101.12
101.12
101.121
101.121
101.121
101.121
101.12
101.12
101.119
101.117
101.116
101.114
101.111
101.108
101.105
101.101
101.097
101.092
101.087
101.082
101.076
101.069
101.063
101.055
101.048
101.04
101.033
101.025
101.017
101.009
101.001
100.993
100.985
100.977
100.97
100.963
100.957
100.951
100.945
100.94
100.935
100.931
100.927
100.924
100.921
100.919
100.917
100.916
100.915
100.914
100.914
100.914
100.914
100.915
100.916
100.916
100.917
100.918
100.919
100.92
100.922
100.923
100.924
100.924
100.925
100.926
100.927
100.927
100.928
100.928
100.929
100.929
100.929
100.93
100.93
100.93
100.93
100.93
101.733
101.733
101.733
101.733
101.733
101.733
101.733
101.734
101.735
101.736
101.738
101.741
101.745
101.75
101.756
101.764
101.774
101.785
101.797
101.811
101.825
101.839
101.851
101.861
101.868
101.871
101.869
101.862
101.849
101.831
101.809
101.783
101.754
101.722
101.69
101.658
101.626
101.595
101.566
101.539
101.514
101.493
101.475
101.46
101.45
101.443
101.44
101.44
101.445
101.453
101.464
101.477
101.493
101.51
101.529
101.548
101.566
101.584
101.601
101.617
101.63
101.641
101.649
101.654
101.656
101.655
101.651
101.644
101.635
101.622
101.608
101.592
101.574
101.556
101.537
101.517
101.498
101.479
101.461
101.444
101.429
101.415
101.402
101.391
101.382