# vtk DataFile Version 2.0
HPC Tutorials: Michael Bader, Kaveh Rahnema, Oliver Meister
ASCII
DATASET RECTILINEAR_GRID
DIMENSIONS 257 257 1
X_COORDINATES 257 float
0
0.005
0.01
0.015
0.02
0.025
0.03
0.035
0.04
0.045
0.05
0.055
0.06
0.065
0.07
0.075
0.08
0.085
0.09
0.095
0.1
0.105
0.11
0.115
0.12
0.125
0.13
0.135
0.14
0.145
0.15
0.155
0.16
0.165
0.17
0.175
0.18
0.185
0.19
0.195
0.2
0.205
0.21
0.215
0.22
0.225
0.23
0.235
0.24
0.245
0.25
0.255
0.26
0.265
0.27
0.275
0.28
0.285
0.29
0.295
0.3
0.305
0.31
0.315
0.32
0.325
0.33
0.335
0.34
0.345
0.35
0.355
0.36
0.365
0.37
0.375
0.38
0.385
0.39
0.395
0.4
0.405
0.41
0.415
0.42
0.425
0.43
0.435
0.44
0.445
0.45
0.455
0.46
0.465
0.47
0.475
0.48
0.485
0.49
0.495
0.5
0.505
0.51
0.515
0.52
0.525
0.53
0.535
0.54
0.545
0.55
0.555
0.56
0.565
0.57
0.575
0.58
0.585
0.59
0.595
0.6
0.605
0.61
0.615
0.62
0.625
0.63
0.635
0.64
0.645
0.65
0.655
0.66
0.665
0.67
0.675
0.68
0.685
0.69
0.695
0.7
0.705
0.71
0.715
0.72
0.725
0.73
0.735
0.74
0.745
0.75
0.755
0.76
0.765
0.77
0.775
0.78
0.785
0.79
0.795
0.8
0.805
0.81
0.815
0.82
0.825
0.83
0.835
0.84
0.845
0.85
0.855
0.86
0.865
0.87
0.875
0.88
0.885
0.89
0.895
0.9
0.905
0.91
0.915
0.92
0.925
0.93
0.935
0.94
0.945
0.95
0.955
0.96
0.965
0.97
0.975
0.98
0.985
0.99
0.995
1
1.005
1.01
1.015
1.02
1.025
1.03
1.035
1.04
1.045
1.05
1.055
1.06
1.065
1.07
1.075
1.08
1.085
1.09
1.095
1.1
1.105
1.11
1.115
1.12
1.125
1.13
1.135
1.14
1.145
1.15
1.155
1.16
1.165
1.17
1.175
1.18
1.185
1.19
1.195
1.2
1.205
1.21
1.215
1.22
1.225
1.23
1.235
1.24
1.245
1.25
1.255
1.26
1.265
1.27
1.275
1.28
Y_COORDINATES 257 float
0
0.005
0.01
0.015
0.02
0.025
0.03
0.035
0.04
0.045
0.05
0.055
0.06
0.065
0.07
0.075
0.08
0.085
0.09
0.095
0.1
0.105
0.11
0.115
0.12
0.125
0.13
0.135
0.14
0.145
0.15
0.155
0.16
0.165
0.17
0.175
0.18
0.185
0.19
0.195
0.2
0.205
0.21
0.215
0.22
0.225
0.23
0.235
0.24
0.245
0.25
0.255
0.26
0.265
0.27
0.275
0.28
0.285
0.29
0.295
0.3
0.305
0.31
0.315
0.32
0.325
0.33
0.335
0.34
0.345
0.35
0.355
0.36
0.365
0.37
0.375
0.38
0.385
0.39
0.395
0.4
0.405
0.41
0.415
0.42
0.425
0.43
0.435
0.44
0.445
0.45
0.455
0.46
0.465
0.47
0.475
0.48
0.485
0.49
0.495
0.5
0.505
0.51
0.515
0.52
0.525
0.53
0.535
0.54
0.545
0.55
0.555
0.56
0.565
0.57
0.575
0.58
0.585
0.59
0.595
0.6
0.605
0.61
0.615
0.62
0.625
0.63
0.635
0.64
0.645
0.65
0.655
0.66
0.665
0.67
0.675
0.68
0.685
0.69
0.695
0.7
0.705
0.71
0.715
0.72
0.725
0.73
0.735
0.74
0.745
0.75
0.755
0.76
0.765
0.77
0.775
0.78
0.785
0.79
0.795
0.8
0.805
0.81
0.815
0.82
0.825
0.83
0.835
0.84
0.845
0.85
0.855
0.86
0.865
0.87
0.875
0.88
0.885
0.89
0.895
0.9
0.905
0.91
0.915
0.92
0.925
0.93
0.935
0.94
0.945
0.95
0.955
0.96
0.965
0.97
0.975
0.98
0.985
0.99
0.995
1
1.005
1.01
1.015
1.02
1.025
1.03
1.035
1.04
1.045
1.05
1.055
1.06
1.065
1.07
1.075
1.08
1.085
1.09
1.095
1.1
1.105
1.11
1.115
1.12
1.125
1.13
1.135
1.14
1.145
1.15
1.155
1.16
1.165
1.17
1.175
1.18
1.185
1.19
1.195
1.2
1.205
1.21
1.215
1.22
1.225
1.23
1.235
1.24
1.245
1.25
1.255
1.26
1.265
1.27
1.275
1.28
Z_COORDINATES 1 float
0
CELL_DATA 65536
SCALARS H float 1
LOOKUP_TABLE default
100.989
100.99
100.991
100.991
100.992
100.994
100.995
100.996
100.997
100.997
100.998
100.998
100.998
100.997
100.996
100.995
100.993
100.991
100.989
100.986
100.982
100.979
100.975
100.971
100.966
100.962
100.957
100.952
100.947
100.942
100.937
100.933
100.928
100.924
100.921
100.918
100.916
100.914
100.914
100.915
100.918
100.922
100.928
100.936
100.947
100.961
100.978
100.999
101.023
101.052
101.085
101.124
101.167
101.215
101.267
101.322
101.38
101.439
101.497
101.552
101.603
101.646
101.68
101.704
101.716
101.716
101.704
101.68
101.645
101.601
101.549
101.49
101.427
101.36
101.292
101.223
101.155
101.087
101.021
100.957
100.895
100.836
100.78
100.727
100.677
100.63
100.586
100.546
100.51
100.478
100.45
100.426
100.406
100.391
100.379
100.372
100.368
100.368
100.371
100.377
100.385
100.395
100.408
100.421
100.436
100.451
100.466
100.481
100.495
100.509
100.523
100.535
100.546
100.556
100.564
100.572
100.579
100.585
100.591
100.596
100.601
100.606
100.611
100.616
100.622
100.628
100.634
100.64
100.647
100.654
100.661
100.669
100.676
100.684
100.691
100.698
100.705
100.712
100.717
100.723
100.728
100.733
100.737
100.741
100.745
100.749
100.753
100.757
100.761
100.766
100.77
100.774
100.778
100.782
100.785
100.789
100.792
100.796
100.799
100.801
100.804
100.806
100.809
100.811
100.813
100.815
100.817
100.819
100.821
100.823
100.825
100.826
100.827
100.829
100.83
100.831
100.832
100.833
100.833
100.834
100.835
100.836
100.836
100.837
100.837
100.838
100.838
100.838
100.838
100.838
100.838
100.838
100.838
100.837
100.836
100.835
100.834
100.833
100.831
100.829
100.828
100.826
100.824
100.822
100.819
100.817
100.815
100.813
100.81
100.808
100.805
100.803
100.801
100.799
100.796
100.794
100.792
100.79
100.788
100.786
100.784
100.782
100.781
100.779
100.777
100.776
100.775
100.773
100.772
100.771
100.77
100.768
100.767
100.766
100.766
100.765
100.764
100.763
100.762
100.761
100.761
100.76
100.759
100.759
100.758
100.758
100.757
100.757
100.756
100.756
100.756
100.755
100.755
100.755
100.755
100.755
100.99
100.99
100.991
100.992
100.992
100.993
100.994
100.995
100.996
100.997
100.997
100.997
100.997
100.997
100.996
100.994
100.993
100.991
100.988
100.985
100.982
100.979
100.975
100.971
100.966
100.962
100.957
100.952
100.947
100.942
100.938
100.933
100.929
100.925
100.922
100.919
100.917
100.916
100.916
100.918
100.921
100.925
100.932
100.941
100.952
100.967
100.985
101.006
101.032
101.061
101.096
101.134
101.178
101.225
101.277
101.33
101.386
101.442
101.496
101.547
101.592
101.631
101.661
101.681
101.69
101.688
101.676
101.652
101.619
101.577
101.528
101.473
101.414
101.351
101.287
101.221
101.155
101.09
101.026
100.964
100.904
100.846
100.791
100.738
100.689
100.642
100.599
100.56
100.524
100.491
100.463
100.439
100.419
100.402
100.39
100.382
100.377
100.375
100.377
100.382
100.389
100.398
100.409
100.421
100.434
100.448
100.463
100.477
100.491
100.505
100.518
100.531
100.542
100.552
100.562
100.57
100.578
100.584
100.591
100.596
100.602
100.607
100.613
100.618
100.623
100.629
100.635
100.641
100.648
100.654
100.661
100.668
100.676
100.683
100.69
100.697
100.704
100.71
100.716
100.722
100.727
100.732
100.736
100.741
100.745
100.749
100.753
100.757
100.761
100.765
100.769
100.773
100.777
100.78
100.784
100.787
100.79
100.793
100.796
100.799
100.802
100.804
100.807
100.809
100.812
100.814
100.816
100.818
100.821
100.823
100.824
100.826
100.828
100.829
100.831
100.832
100.833
100.834
100.834
100.835
100.836
100.836
100.837
100.837
100.837
100.837
100.837
100.837
100.837
100.837
100.837
100.836
100.836
100.835
100.834
100.833
100.832
100.831
100.829
100.828
100.826
100.824
100.822
100.82
100.818
100.816
100.814
100.812
100.81
100.808
100.806
100.804
100.801
100.799
100.797
100.795
100.793
100.791
100.789
100.788
100.786
100.784
100.783
100.781
100.78
100.778
100.777
100.776
100.775
100.773
100.772
100.771
100.77
100.769
100.768
100.768
100.767
100.766
100.765
100.764
100.764
100.763
100.762
100.762
100.761
100.761
100.76
100.76
100.759
100.759
100.758
100.758
100.758
100.758
100.758
100.758
100.99
100.99
100.991
100.992
100.992
100.993
100.994
100.995
100.996
100.996
100.997
100.997
100.997
100.996
100.995
100.994
100.992
100.99
100.988
100.985
100.982
100.978
100.975
100.971
100.966
100.962
100.957
100.952
100.948
100.943
100.938
100.934
100.93
100.927
100.924
100.921
100.92
100.919
100.92
100.922
100.925
100.931
100.939
100.949
100.961
100.977
100.996
101.019
101.046
101.077
101.112
101.151
101.195
101.241
101.29
101.341
101.392
101.442
101.49
101.534
101.572
101.603
101.627
101.642
101.648
101.645
101.632
101.61
101.58
101.543
101.499
101.45
101.396
101.339
101.279
101.218
101.157
101.096
101.035
100.976
100.918
100.862
100.808
100.757
100.709
100.663
100.62
100.581
100.545
100.512
100.483
100.459
100.437
100.42
100.406
100.396
100.39
100.387
100.386
100.389
100.394
100.401
100.41
100.42
100.432
100.445
100.458
100.472
100.485
100.499
100.512
100.525
100.537
100.548
100.558
100.567
100.576
100.583
100.591
100.597
100.603
100.609
100.614
100.62
100.625
100.631
100.636
100.642
100.648
100.655
100.661
100.668
100.675
100.682
100.689
100.695
100.702
100.708
100.714
100.72
100.725
100.73
100.735
100.74
100.744
100.748
100.752
100.756
100.76
100.764
100.767
100.771
100.774
100.778
100.781
100.784
100.787
100.79
100.793
100.796
100.798
100.801
100.804
100.807
100.81
100.812
100.815
100.817
100.82
100.822
100.824
100.826
100.828
100.83
100.831
100.833
100.834
100.835
100.835
100.836
100.836
100.837
100.837
100.837
100.837
100.837
100.836
100.836
100.836
100.835
100.834
100.834
100.833
100.832
100.831
100.83
100.829
100.828
100.827
100.826
100.824
100.823
100.821
100.819
100.818
100.816
100.814
100.812
100.81
100.808
100.806
100.804
100.803
100.801
100.799
100.797
100.795
100.793
100.792
100.79
100.788
100.787
100.785
100.784
100.783
100.781
100.78
100.779
100.778
100.777
100.776
100.775
100.774
100.773
100.772
100.771
100.77
100.769
100.768
100.768
100.767
100.766
100.766
100.765
100.764
100.764
100.763
100.763
100.762
100.762
100.761
100.761
100.761
100.761
100.761
100.761
100.991
100.991
100.991
100.992
100.993
100.993
100.994
100.995
100.995
100.996
100.996
100.996
100.996
100.995
100.994
100.993
100.991
100.989
100.987
100.984
100.981
100.978
100.974
100.97
100.966
100.962
100.957
100.953
100.948
100.944
100.94
100.936
100.932
100.929
100.926
100.924
100.923
100.924
100.925
100.928
100.933
100.939
100.948
100.96
100.974
100.992
101.013
101.038
101.066
101.099
101.135
101.175
101.217
101.262
101.308
101.354
101.399
101.441
101.48
101.514
101.543
101.566
101.581
101.59
101.592
101.586
101.573
101.554
101.528
101.496
101.458
101.416
101.37
101.32
101.267
101.213
101.158
101.102
101.046
100.991
100.937
100.884
100.832
100.783
100.736
100.691
100.649
100.61
100.574
100.542
100.512
100.486
100.464
100.445
100.43
100.417
100.409
100.403
100.4
100.399
100.401
100.406
100.412
100.42
100.43
100.441
100.453
100.465
100.478
100.491
100.505
100.517
100.53
100.542
100.553
100.563
100.573
100.581
100.589
100.597
100.604
100.61
100.616
100.622
100.627
100.633
100.638
100.644
100.65
100.656
100.662
100.668
100.674
100.681
100.687
100.693
100.7
100.706
100.712
100.717
100.723
100.728
100.733
100.738
100.742
100.746
100.75
100.754
100.758
100.761
100.765
100.768
100.771
100.774
100.777
100.78
100.783
100.786
100.789
100.792
100.795
100.798
100.801
100.804
100.807
100.81
100.813
100.816
100.818
100.821
100.823
100.826
100.828
100.829
100.831
100.832
100.834
100.835
100.835
100.836
100.836
100.836
100.836
100.836
100.836
100.836
100.835
100.834
100.834
100.833
100.832
100.832
100.831
100.83
100.829
100.828
100.827
100.826
100.825
100.824
100.822
100.821
100.82
100.818
100.817
100.815
100.814
100.812
100.81
100.809
100.807
100.805
100.803
100.802
100.8
100.798
100.796
100.795
100.793
100.792
100.79
100.789
100.787
100.786
100.785
100.784
100.782
100.781
100.78
100.779
100.778
100.777
100.776
100.775
100.775
100.774
100.773
100.772
100.771
100.77
100.77
100.769
100.768
100.768
100.767
100.766
100.766
100.765
100.765
100.764
100.764
100.764
100.763
100.763
100.763
100.763
100.991
100.991
100.992
100.992
100.993
100.993
100.994
100.994
100.994
100.995
100.995
100.995
100.994
100.994
100.993
100.992
100.99
100.988
100.986
100.983
100.98
100.977
100.974
100.97
100.966
100.962
100.958
100.953
100.949
100.945
100.941
100.937
100.934
100.932
100.93
100.929
100.928
100.93
100.932
100.936
100.942
100.95
100.961
100.975
100.991
101.011
101.035
101.062
101.092
101.126
101.163
101.203
101.244
101.285
101.326
101.366
101.402
101.435
101.464
101.487
101.506
101.518
101.526
101.528
101.525
101.518
101.505
101.488
101.466
101.44
101.409
101.375
101.337
101.295
101.251
101.205
101.157
101.108
101.058
101.008
100.958
100.909
100.861
100.814
100.769
100.726
100.685
100.647
100.611
100.578
100.548
100.521
100.497
100.476
100.458
100.444
100.432
100.423
100.417
100.413
100.412
100.413
100.417
100.422
100.429
100.438
100.448
100.459
100.471
100.484
100.496
100.509
100.522
100.534
100.546
100.557
100.568
100.578
100.587
100.595
100.603
100.61
100.617
100.623
100.629
100.635
100.64
100.646
100.652
100.657
100.663
100.669
100.674
100.68
100.686
100.692
100.697
100.703
100.709
100.714
100.719
100.725
100.73
100.734
100.739
100.743
100.747
100.751
100.754
100.757
100.761
100.764
100.767
100.77
100.772
100.775
100.778
100.782
100.785
100.788
100.791
100.795
100.798
100.801
100.804
100.808
100.811
100.814
100.816
100.819
100.822
100.824
100.826
100.828
100.83
100.831
100.832
100.833
100.834
100.835
100.835
100.835
100.835
100.835
100.835
100.834
100.834
100.833
100.832
100.832
100.831
100.83
100.829
100.828
100.828
100.827
100.826
100.825
100.824
100.823
100.821
100.82
100.819
100.817
100.816
100.815
100.813
100.811
100.81
100.808
100.807
100.805
100.803
100.802
100.8
100.798
100.797
100.795
100.794
100.792
100.791
100.79
100.788
100.787
100.786
100.785
100.784
100.783
100.782
100.781
100.78
100.779
100.778
100.777
100.776
100.775
100.775
100.774
100.773
100.772
100.772
100.771
100.77
100.769
100.769
100.768
100.768
100.767
100.767
100.766
100.766
100.766
100.765
100.765
100.765
100.765
100.992
100.992
100.992
100.992
100.993
100.993
100.993
100.993
100.994
100.994
100.994
100.993
100.993
100.992
100.991
100.99
100.989
100.987
100.985
100.982
100.979
100.976
100.973
100.97
100.966
100.962
100.958
100.954
100.95
100.946
100.943
100.94
100.937
100.935
100.934
100.934
100.935
100.937
100.941
100.947
100.955
100.965
100.978
100.994
101.013
101.035
101.061
101.091
101.123
101.158
101.195
101.233
101.271
101.308
101.343
101.374
101.401
101.424
101.441
101.453
101.461
101.464
101.464
101.46
101.453
101.443
101.43
101.415
101.397
101.377
101.353
101.327
101.297
101.265
101.23
101.192
101.153
101.111
101.069
101.025
100.981
100.937
100.893
100.85
100.807
100.766
100.727
100.689
100.654
100.621
100.59
100.562
100.536
100.513
100.492
100.475
100.46
100.447
100.438
100.43
100.426
100.424
100.424
100.426
100.431
100.437
100.445
100.455
100.465
100.477
100.489
100.501
100.514
100.526
100.539
100.551
100.562
100.573
100.583
100.592
100.601
100.609
100.617
100.624
100.63
100.636
100.642
100.648
100.654
100.659
100.665
100.67
100.675
100.68
100.685
100.69
100.696
100.701
100.706
100.711
100.716
100.72
100.725
100.73
100.734
100.738
100.742
100.745
100.749
100.752
100.755
100.758
100.761
100.764
100.767
100.77
100.774
100.777
100.78
100.784
100.787
100.791
100.795
100.798
100.801
100.805
100.808
100.811
100.814
100.816
100.819
100.821
100.823
100.825
100.827
100.829
100.83
100.831
100.832
100.833
100.833
100.833
100.833
100.833
100.833
100.833
100.833
100.832
100.832
100.831
100.83
100.829
100.829
100.828
100.827
100.826
100.825
100.824
100.823
100.822
100.821
100.819
100.818
100.817
100.815
100.814
100.812
100.811
100.809
100.807
100.806
100.804
100.803
100.801
100.799
100.798
100.796
100.795
100.793
100.792
100.791
100.789
100.788
100.787
100.786
100.785
100.784
100.783
100.782
100.781
100.78
100.779
100.778
100.778
100.777
100.776
100.775
100.775
100.774
100.773
100.773
100.772
100.771
100.771
100.77
100.769
100.769
100.768
100.768
100.768
100.767
100.767
100.767
100.766
100.766
100.766
100.992
100.992
100.993
100.993
100.993
100.993
100.993
100.993
100.993
100.993
100.992
100.992
100.991
100.991
100.99
100.989
100.987
100.985
100.983
100.981
100.978
100.975
100.972
100.969
100.965
100.962
100.958
100.955
100.951
100.948
100.945
100.943
100.941
100.94
100.94
100.941
100.943
100.947
100.952
100.96
100.97
100.982
100.998
101.017
101.039
101.064
101.093
101.124
101.158
101.193
101.229
101.264
101.297
101.328
101.355
101.377
101.394
101.405
101.412
101.413
101.411
101.406
101.398
101.388
101.377
101.365
101.353
101.339
101.325
101.309
101.292
101.273
101.252
101.229
101.203
101.175
101.144
101.112
101.077
101.041
101.003
100.965
100.926
100.887
100.848
100.81
100.773
100.736
100.701
100.668
100.636
100.607
100.579
100.554
100.531
100.51
100.492
100.476
100.463
100.452
100.444
100.438
100.435
100.434
100.436
100.44
100.445
100.453
100.462
100.472
100.482
100.494
100.506
100.518
100.531
100.543
100.555
100.566
100.577
100.587
100.597
100.606
100.615
100.623
100.63
100.637
100.644
100.65
100.656
100.661
100.667
100.672
100.676
100.681
100.685
100.69
100.694
100.698
100.703
100.707
100.711
100.716
100.72
100.724
100.728
100.732
100.735
100.739
100.742
100.745
100.749
100.752
100.755
100.758
100.761
100.765
100.768
100.772
100.776
100.78
100.784
100.787
100.791
100.795
100.798
100.802
100.805
100.808
100.811
100.813
100.816
100.818
100.82
100.822
100.824
100.825
100.826
100.828
100.829
100.829
100.83
100.831
100.831
100.831
100.831
100.831
100.831
100.831
100.831
100.83
100.83
100.829
100.828
100.828
100.827
100.826
100.825
100.824
100.823
100.821
100.82
100.819
100.817
100.816
100.814
100.813
100.811
100.81
100.808
100.806
100.805
100.803
100.801
100.8
100.798
100.797
100.795
100.794
100.793
100.791
100.79
100.789
100.788
100.786
100.785
100.784
100.783
100.783
100.782
100.781
100.78
100.779
100.779
100.778
100.777
100.776
100.776
100.775
100.774
100.774
100.773
100.772
100.772
100.771
100.771
100.77
100.77
100.769
100.769
100.769
100.768
100.768
100.768
100.768
100.767
100.767
100.993
100.993
100.993
100.993
100.993
100.992
100.992
100.992
100.992
100.991
100.991
100.99
100.99
100.989
100.988
100.987
100.985
100.983
100.982
100.979
100.977
100.974
100.971
100.968
100.965
100.962
100.959
100.956
100.953
100.95
100.948
100.946
100.945
100.945
100.946
100.949
100.953
100.958
100.966
100.976
100.988
101.004
101.022
101.044
101.069
101.097
101.128
101.161
101.195
101.229
101.262
101.293
101.32
101.343
101.36
101.372
101.379
101.38
101.376
101.368
101.357
101.345
101.331
101.316
101.302
101.288
101.276
101.263
101.252
101.241
101.229
101.217
101.203
101.188
101.172
101.153
101.131
101.108
101.082
101.053
101.023
100.992
100.959
100.925
100.89
100.855
100.82
100.786
100.752
100.718
100.686
100.656
100.626
100.599
100.573
100.549
100.528
100.509
100.492
100.478
100.466
100.457
100.451
100.447
100.446
100.447
100.45
100.455
100.461
100.469
100.479
100.489
100.5
100.511
100.523
100.535
100.547
100.558
100.57
100.581
100.592
100.602
100.611
100.62
100.629
100.637
100.644
100.651
100.657
100.663
100.668
100.673
100.678
100.682
100.686
100.689
100.693
100.697
100.7
100.704
100.707
100.711
100.714
100.718
100.721
100.725
100.728
100.731
100.734
100.737
100.741
100.744
100.747
100.751
100.754
100.758
100.762
100.766
100.77
100.775
100.779
100.783
100.787
100.791
100.795
100.798
100.801
100.804
100.807
100.81
100.812
100.814
100.816
100.818
100.82
100.821
100.823
100.824
100.825
100.826
100.827
100.827
100.828
100.828
100.829
100.829
100.829
100.829
100.829
100.829
100.829
100.828
100.828
100.827
100.826
100.826
100.825
100.823
100.822
100.821
100.82
100.818
100.817
100.815
100.814
100.812
100.811
100.809
100.807
100.806
100.804
100.802
100.801
100.799
100.798
100.796
100.795
100.793
100.792
100.791
100.789
100.788
100.787
100.786
100.785
100.784
100.783
100.783
100.782
100.781
100.78
100.78
100.779
100.778
100.778
100.777
100.776
100.776
100.775
100.775
100.774
100.773
100.773
100.772
100.772
100.771
100.771
100.77
100.77
100.77
100.769
100.769
100.769
100.769
100.769
100.769
100.994
100.993
100.993
100.993
100.993
100.992
100.992
100.991
100.991
100.99
100.989
100.989
100.988
100.987
100.986
100.985
100.983
100.981
100.98
100.978
100.975
100.973
100.97
100.967
100.965
100.962
100.959
100.957
100.954
100.953
100.951
100.951
100.951
100.952
100.955
100.959
100.964
100.972
100.982
100.995
101.01
101.029
101.051
101.076
101.103
101.134
101.166
101.199
101.232
101.263
101.292
101.316
101.336
101.35
101.358
101.36
101.357
101.348
101.335
101.32
101.302
101.283
101.264
101.246
101.229
101.214
101.201
101.19
101.181
101.173
101.165
101.159
101.152
101.145
101.136
101.126
101.113
101.098
101.081
101.062
101.04
101.015
100.989
100.961
100.931
100.9
100.868
100.836
100.803
100.77
100.738
100.706
100.676
100.646
100.618
100.592
100.567
100.545
100.525
100.508
100.493
100.481
100.472
100.465
100.461
100.459
100.459
100.461
100.465
100.471
100.478
100.486
100.496
100.506
100.516
100.528
100.539
100.55
100.562
100.573
100.585
100.595
100.606
100.616
100.625
100.634
100.643
100.65
100.657
100.664
100.669
100.674
100.679
100.682
100.686
100.689
100.692
100.695
100.698
100.7
100.703
100.706
100.709
100.711
100.714
100.717
100.72
100.723
100.725
100.728
100.732
100.735
100.738
100.742
100.746
100.75
100.755
100.759
100.764
100.768
100.773
100.778
100.782
100.786
100.79
100.794
100.797
100.801
100.804
100.806
100.809
100.811
100.813
100.814
100.816
100.817
100.819
100.82
100.821
100.822
100.823
100.824
100.824
100.825
100.826
100.826
100.826
100.827
100.827
100.827
100.827
100.827
100.826
100.826
100.825
100.824
100.824
100.823
100.822
100.82
100.819
100.818
100.816
100.815
100.813
100.812
100.81
100.808
100.807
100.805
100.804
100.802
100.801
100.799
100.798
100.796
100.795
100.794
100.792
100.791
100.79
100.789
100.788
100.787
100.786
100.785
100.784
100.784
100.783
100.782
100.781
100.781
100.78
100.779
100.779
100.778
100.778
100.777
100.777
100.776
100.775
100.775
100.774
100.774
100.773
100.773
100.773
100.772
100.772
100.772
100.771
100.771
100.771
100.771
100.771
100.771
100.994
100.994
100.993
100.993
100.992
100.992
100.991
100.99
100.99
100.989
100.988
100.987
100.986
100.985
100.984
100.982
100.981
100.979
100.977
100.975
100.973
100.971
100.969
100.966
100.964
100.962
100.96
100.958
100.956
100.956
100.955
100.956
100.957
100.96
100.964
100.97
100.978
100.989
101.002
101.017
101.036
101.058
101.083
101.111
101.141
101.173
101.205
101.237
101.267
101.294
101.316
101.333
101.345
101.349
101.348
101.341
101.328
101.311
101.291
101.269
101.246
101.223
101.2
101.18
101.161
101.145
101.132
101.121
101.113
101.107
101.104
101.102
101.1
101.099
101.097
101.095
101.091
101.084
101.076
101.064
101.05
101.034
101.014
100.992
100.968
100.942
100.913
100.884
100.853
100.822
100.79
100.758
100.726
100.695
100.666
100.637
100.61
100.586
100.563
100.543
100.525
100.51
100.498
100.488
100.481
100.476
100.474
100.473
100.474
100.477
100.482
100.488
100.495
100.503
100.512
100.522
100.532
100.543
100.554
100.566
100.577
100.588
100.599
100.61
100.621
100.63
100.64
100.648
100.656
100.662
100.669
100.674
100.678
100.682
100.686
100.688
100.691
100.693
100.696
100.698
100.699
100.701
100.703
100.705
100.707
100.709
100.711
100.714
100.716
100.719
100.722
100.725
100.729
100.732
100.737
100.741
100.746
100.751
100.756
100.761
100.766
100.771
100.776
100.78
100.785
100.789
100.793
100.796
100.8
100.802
100.805
100.807
100.809
100.811
100.812
100.814
100.815
100.816
100.817
100.818
100.819
100.82
100.82
100.821
100.822
100.822
100.823
100.823
100.824
100.824
100.824
100.824
100.824
100.824
100.823
100.823
100.822
100.821
100.82
100.819
100.818
100.817
100.815
100.814
100.813
100.811
100.81
100.808
100.807
100.805
100.804
100.803
100.801
100.8
100.798
100.797
100.796
100.795
100.794
100.793
100.792
100.791
100.79
100.789
100.788
100.787
100.786
100.786
100.785
100.784
100.784
100.783
100.782
100.782
100.781
100.781
100.78
100.78
100.779
100.778
100.778
100.777
100.777
100.776
100.776
100.776
100.775
100.775
100.774
100.774
100.774
100.774
100.773
100.773
100.773
100.773
100.994
100.994
100.993
100.993
100.992
100.991
100.99
100.989
100.988
100.987
100.986
100.985
100.984
100.983
100.981
100.98
100.979
100.977
100.975
100.973
100.971
100.969
100.967
100.965
100.964
100.962
100.961
100.959
100.959
100.959
100.96
100.962
100.965
100.97
100.976
100.984
100.995
101.008
101.024
101.043
101.066
101.091
101.119
101.149
101.18
101.212
101.243
101.272
101.297
101.318
101.333
101.342
101.344
101.34
101.329
101.314
101.294
101.27
101.245
101.218
101.191
101.165
101.14
101.118
101.098
101.081
101.068
101.058
101.051
101.047
101.045
101.047
101.049
101.053
101.058
101.061
101.064
101.066
101.065
101.062
101.055
101.046
101.034
101.018
101
100.978
100.955
100.928
100.9
100.871
100.84
100.809
100.777
100.745
100.715
100.685
100.656
100.629
100.605
100.582
100.562
100.545
100.53
100.517
100.507
100.5
100.494
100.491
100.489
100.489
100.491
100.494
100.498
100.504
100.511
100.519
100.528
100.538
100.548
100.559
100.57
100.581
100.592
100.603
100.614
100.625
100.634
100.643
100.652
100.659
100.666
100.671
100.676
100.68
100.684
100.687
100.689
100.691
100.693
100.695
100.696
100.697
100.698
100.7
100.701
100.702
100.703
100.705
100.707
100.709
100.712
100.715
100.718
100.722
100.726
100.731
100.736
100.741
100.746
100.752
100.757
100.763
100.768
100.773
100.778
100.783
100.787
100.791
100.795
100.798
100.801
100.804
100.806
100.808
100.809
100.81
100.812
100.813
100.814
100.814
100.815
100.816
100.817
100.817
100.818
100.818
100.819
100.819
100.82
100.82
100.82
100.82
100.82
100.82
100.82
100.82
100.819
100.819
100.818
100.817
100.816
100.815
100.814
100.813
100.812
100.811
100.81
100.808
100.807
100.806
100.805
100.803
100.802
100.801
100.8
100.799
100.798
100.797
100.796
100.795
100.794
100.793
100.792
100.792
100.791
100.79
100.789
100.789
100.788
100.788
100.787
100.786
100.786
100.785
100.785
100.784
100.783
100.783
100.782
100.782
100.781
100.781
100.78
100.78
100.779
100.779
100.778
100.778
100.778
100.777
100.777
100.777
100.777
100.776
100.776
100.776
100.994
100.994
100.993
100.993
100.992
100.991
100.99
100.989
100.987
100.986
100.985
100.983
100.982
100.981
100.979
100.978
100.976
100.974
100.973
100.971
100.969
100.968
100.966
100.964
100.963
100.962
100.962
100.961
100.962
100.963
100.966
100.969
100.974
100.981
100.99
101.001
101.014
101.031
101.051
101.073
101.099
101.127
101.157
101.188
101.22
101.25
101.278
101.303
101.322
101.335
101.342
101.342
101.335
101.322
101.304
101.281
101.255
101.227
101.198
101.168
101.139
101.111
101.085
101.062
101.041
101.024
101.011
101.001
100.994
100.992
100.992
100.996
101.001
101.009
101.018
101.027
101.036
101.043
101.049
101.053
101.054
101.051
101.046
101.037
101.024
101.008
100.989
100.967
100.943
100.916
100.887
100.857
100.826
100.795
100.764
100.733
100.704
100.676
100.65
100.626
100.604
100.584
100.567
100.552
100.539
100.529
100.52
100.514
100.509
100.506
100.505
100.505
100.507
100.51
100.514
100.52
100.527
100.535
100.544
100.554
100.564
100.574
100.585
100.596
100.607
100.618
100.628
100.637
100.646
100.653
100.66
100.667
100.672
100.677
100.68
100.684
100.686
100.688
100.69
100.691
100.692
100.693
100.694
100.694
100.694
100.695
100.696
100.697
100.698
100.7
100.702
100.704
100.707
100.711
100.715
100.72
100.725
100.73
100.735
100.741
100.747
100.753
100.759
100.765
100.77
100.775
100.78
100.785
100.789
100.793
100.796
100.799
100.801
100.804
100.805
100.807
100.808
100.809
100.81
100.811
100.812
100.812
100.813
100.813
100.814
100.814
100.815
100.815
100.816
100.816
100.816
100.816
100.817
100.817
100.817
100.817
100.816
100.816
100.816
100.815
100.814
100.814
100.813
100.812
100.811
100.81
100.809
100.808
100.807
100.806
100.805
100.804
100.803
100.802
100.802
100.801
100.8
100.799
100.798
100.797
100.797
100.796
100.795
100.795
100.794
100.793
100.793
100.792
100.792
100.791
100.791
100.79
100.79
100.789
100.788
100.788
100.787
100.787
100.786
100.786
100.785
100.785
100.784
100.784
100.783
100.783
100.782
100.782
100.782
100.781
100.781
100.781
100.78
100.78
100.78
100.78
100.994
100.993
100.993
100.992
100.991
100.99
100.989
100.987
100.986
100.985
100.983
100.982
100.98
100.978
100.977
100.975
100.973
100.972
100.97
100.969
100.967
100.966
100.965
100.964
100.963
100.963
100.963
100.964
100.966
100.968
100.972
100.978
100.985
100.994
101.006
101.02
101.037
101.057
101.08
101.106
101.135
101.165
101.196
101.228
101.258
101.285
101.308
101.326
101.338
101.343
101.341
101.332
101.317
101.297
101.273
101.245
101.214
101.183
101.151
101.12
101.089
101.061
101.035
101.011
100.991
100.974
100.96
100.951
100.945
100.943
100.945
100.95
100.958
100.968
100.98
100.993
101.006
101.018
101.029
101.039
101.046
101.05
101.05
101.047
101.041
101.03
101.016
100.999
100.978
100.955
100.929
100.901
100.872
100.843
100.812
100.782
100.753
100.725
100.698
100.673
100.65
100.628
100.609
100.592
100.577
100.564
100.553
100.543
100.535
100.529
100.525
100.522
100.521
100.521
100.523
100.526
100.531
100.537
100.543
100.551
100.56
100.57
100.58
100.59
100.6
100.61
100.62
100.629
100.638
100.646
100.653
100.659
100.665
100.67
100.675
100.678
100.681
100.683
100.685
100.687
100.687
100.688
100.688
100.688
100.688
100.688
100.688
100.689
100.689
100.69
100.692
100.694
100.697
100.7
100.704
100.708
100.713
100.719
100.724
100.73
100.736
100.742
100.748
100.755
100.761
100.766
100.772
100.777
100.782
100.786
100.79
100.793
100.796
100.799
100.801
100.803
100.804
100.806
100.807
100.807
100.808
100.809
100.809
100.81
100.81
100.811
100.811
100.812
100.812
100.812
100.813
100.813
100.813
100.813
100.813
100.813
100.813
100.813
100.813
100.813
100.812
100.812
100.811
100.811
100.81
100.809
100.809
100.808
100.807
100.806
100.805
100.805
100.804
100.803
100.803
100.802
100.801
100.801
100.8
100.8
100.799
100.798
100.798
100.797
100.797
100.797
100.796
100.796
100.795
100.795
100.794
100.794
100.793
100.793
100.792
100.792
100.791
100.791
100.79
100.79
100.789
100.789
100.788
100.788
100.788
100.787
100.787
100.786
100.786
100.786
100.785
100.785
100.785
100.785
100.785
100.785
100.993
100.993
100.992
100.991
100.99
100.989
100.988
100.986
100.985
100.983
100.981
100.98
100.978
100.976
100.974
100.973
100.971
100.969
100.968
100.966
100.965
100.964
100.963
100.963
100.963
100.963
100.965
100.967
100.97
100.975
100.981
100.988
100.998
101.01
101.025
101.043
101.063
101.087
101.113
101.142
101.173
101.204
101.236
101.266
101.292
101.315
101.331
101.342
101.345
101.341
101.331
101.315
101.293
101.267
101.237
101.206
101.173
101.139
101.106
101.074
101.044
101.015
100.989
100.966
100.946
100.93
100.917
100.908
100.903
100.902
100.904
100.91
100.919
100.931
100.945
100.96
100.976
100.991
101.007
101.02
101.032
101.041
101.047