# vtk DataFile Version 2.0
HPC Tutorials: Michael Bader, Kaveh Rahnema, Oliver Meister
ASCII
DATASET RECTILINEAR_GRID
DIMENSIONS 257 257 1
X_COORDINATES 257 float
0
0.005
0.01
0.015
0.02
0.025
0.03
0.035
0.04
0.045
0.05
0.055
0.06
0.065
0.07
0.075
0.08
0.085
0.09
0.095
0.1
0.105
0.11
0.115
0.12
0.125
0.13
0.135
0.14
0.145
0.15
0.155
0.16
0.165
0.17
0.175
0.18
0.185
0.19
0.195
0.2
0.205
0.21
0.215
0.22
0.225
0.23
0.235
0.24
0.245
0.25
0.255
0.26
0.265
0.27
0.275
0.28
0.285
0.29
0.295
0.3
0.305
0.31
0.315
0.32
0.325
0.33
0.335
0.34
0.345
0.35
0.355
0.36
0.365
0.37
0.375
0.38
0.385
0.39
0.395
0.4
0.405
0.41
0.415
0.42
0.425
0.43
0.435
0.44
0.445
0.45
0.455
0.46
0.465
0.47
0.475
0.48
0.485
0.49
0.495
0.5
0.505
0.51
0.515
0.52
0.525
0.53
0.535
0.54
0.545
0.55
0.555
0.56
0.565
0.57
0.575
0.58
0.585
0.59
0.595
0.6
0.605
0.61
0.615
0.62
0.625
0.63
0.635
0.64
0.645
0.65
0.655
0.66
0.665
0.67
0.675
0.68
0.685
0.69
0.695
0.7
0.705
0.71
0.715
0.72
0.725
0.73
0.735
0.74
0.745
0.75
0.755
0.76
0.765
0.77
0.775
0.78
0.785
0.79
0.795
0.8
0.805
0.81
0.815
0.82
0.825
0.83
0.835
0.84
0.845
0.85
0.855
0.86
0.865
0.87
0.875
0.88
0.885
0.89
0.895
0.9
0.905
0.91
0.915
0.92
0.925
0.93
0.935
0.94
0.945
0.95
0.955
0.96
0.965
0.97
0.975
0.98
0.985
0.99
0.995
1
1.005
1.01
1.015
1.02
1.025
1.03
1.035
1.04
1.045
1.05
1.055
1.06
1.065
1.07
1.075
1.08
1.085
1.09
1.095
1.1
1.105
1.11
1.115
1.12
1.125
1.13
1.135
1.14
1.145
1.15
1.155
1.16
1.165
1.17
1.175
1.18
1.185
1.19
1.195
1.2
1.205
1.21
1.215
1.22
1.225
1.23
1.235
1.24
1.245
1.25
1.255
1.26
1.265
1.27
1.275
1.28
Y_COORDINATES 257 float
0
0.005
0.01
0.015
0.02
0.025
0.03
0.035
0.04
0.045
0.05
0.055
0.06
0.065
0.07
0.075
0.08
0.085
0.09
0.095
0.1
0.105
0.11
0.115
0.12
0.125
0.13
0.135
0.14
0.145
0.15
0.155
0.16
0.165
0.17
0.175
0.18
0.185
0.19
0.195
0.2
0.205
0.21
0.215
0.22
0.225
0.23
0.235
0.24
0.245
0.25
0.255
0.26
0.265
0.27
0.275
0.28
0.285
0.29
0.295
0.3
0.305
0.31
0.315
0.32
0.325
0.33
0.335
0.34
0.345
0.35
0.355
0.36
0.365
0.37
0.375
0.38
0.385
0.39
0.395
0.4
0.405
0.41
0.415
0.42
0.425
0.43
0.435
0.44
0.445
0.45
0.455
0.46
0.465
0.47
0.475
0.48
0.485
0.49
0.495
0.5
0.505
0.51
0.515
0.52
0.525
0.53
0.535
0.54
0.545
0.55
0.555
0.56
0.565
0.57
0.575
0.58
0.585
0.59
0.595
0.6
0.605
0.61
0.615
0.62
0.625
0.63
0.635
0.64
0.645
0.65
0.655
0.66
0.665
0.67
0.675
0.68
0.685
0.69
0.695
0.7
0.705
0.71
0.715
0.72
0.725
0.73
0.735
0.74
0.745
0.75
0.755
0.76
0.765
0.77
0.775
0.78
0.785
0.79
0.795
0.8
0.805
0.81
0.815
0.82
0.825
0.83
0.835
0.84
0.845
0.85
0.855
0.86
0.865
0.87
0.875
0.88
0.885
0.89
0.895
0.9
0.905
0.91
0.915
0.92
0.925
0.93
0.935
0.94
0.945
0.95
0.955
0.96
0.965
0.97
0.975
0.98
0.985
0.99
0.995
1
1.005
1.01
1.015
1.02
1.025
1.03
1.035
1.04
1.045
1.05
1.055
1.06
1.065
1.07
1.075
1.08
1.085
1.09
1.095
1.1
1.105
1.11
1.115
1.12
1.125
1.13
1.135
1.14
1.145
1.15
1.155
1.16
1.165
1.17
1.175
1.18
1.185
1.19
1.195
1.2
1.205
1.21
1.215
1.22
1.225
1.23
1.235
1.24
1.245
1.25
1.255
1.26
1.265
1.27
1.275
1.28
Z_COORDINATES 1 float
0
CELL_DATA 65536
SCALARS H float 1
LOOKUP_TABLE default
99.6239
99.6233
99.6223
99.6209
99.6191
99.6169
99.6143
99.6114
99.6081
99.6045
99.6006
99.5963
99.5917
99.5868
99.5816
99.576
99.5702
99.564
99.5575
99.5507
99.5437
99.5366
99.5294
99.5223
99.5155
99.5092
99.5035
99.4987
99.495
99.4927
99.4921
99.4933
99.4967
99.5024
99.5106
99.5214
99.5348
99.5509
99.5697
99.591
99.6148
99.6407
99.6686
99.6982
99.7291
99.7611
99.7937
99.8265
99.8592
99.8914
99.9226
99.9526
99.981
100.007
100.032
100.054
100.073
100.09
100.104
100.116
100.125
100.131
100.136
100.138
100.139
100.138
100.135
100.132
100.128
100.124
100.12
100.116
100.112
100.108
100.106
100.103
100.102
100.101
100.102
100.102
100.104
100.107
100.11
100.113
100.118
100.122
100.127
100.133
100.138
100.144
100.15
100.156
100.162
100.169
100.175
100.181
100.187
100.193
100.198
100.204
100.209
100.215
100.22
100.224
100.229
100.234
100.238
100.243
100.248
100.252
100.257
100.262
100.268
100.274
100.28
100.287
100.295
100.303
100.313
100.323
100.334
100.346
100.358
100.372
100.386
100.401
100.417
100.433
100.449
100.465
100.481
100.496
100.51
100.524
100.536
100.547
100.555
100.562
100.567
100.569
100.568
100.565
100.559
100.551
100.54
100.526
100.51
100.492
100.472
100.45
100.426
100.4
100.374
100.347
100.319
100.29
100.262
100.234
100.206
100.178
100.151
100.126
100.101
100.077
100.054
100.033
100.013
99.9946
99.9774
99.9616
99.947
99.9338
99.9219
99.9112
99.9017
99.8933
99.8861
99.8799
99.8747
99.8705
99.8673
99.8651
99.8639
99.8636
99.8644
99.8661
99.8689
99.8728
99.8778
99.8839
99.8912
99.8996
99.9093
99.9203
99.9325
99.9461
99.9609
99.9769
99.9943
100.013
100.033
100.053
100.075
100.098
100.122
100.147
100.172
100.198
100.225
100.251
100.278
100.305
100.332
100.359
100.385
100.411
100.436
100.461
100.484
100.507
100.529
100.55
100.57
100.589
100.607
100.624
100.639
100.654
100.667
100.68
100.691
100.701
100.71
100.719
100.726
100.733
100.739
100.744
100.748
100.752
100.756
100.758
100.761
100.763
100.764
100.766
100.767
100.768
100.768
100.769
100.769
100.769
100.77
100.77
100.77
100.77
99.6244
99.6237
99.6227
99.6213
99.6194
99.6172
99.6146
99.6117
99.6083
99.6047
99.6007
99.5964
99.5918
99.5868
99.5815
99.5759
99.57
99.5638
99.5573
99.5505
99.5436
99.5365
99.5295
99.5226
99.516
99.5098
99.5043
99.4998
99.4963
99.4943
99.4939
99.4954
99.499
99.5048
99.5131
99.5239
99.5374
99.5535
99.5721
99.5933
99.6168
99.6425
99.6701
99.6994
99.73
99.7616
99.7938
99.8263
99.8586
99.8904
99.9214
99.9511
99.9792
100.006
100.03
100.052
100.071
100.088
100.102
100.114
100.123
100.13
100.134
100.137
100.137
100.137
100.135
100.132
100.128
100.124
100.12
100.116
100.112
100.109
100.106
100.104
100.102
100.101
100.101
100.102
100.104
100.106
100.109
100.113
100.117
100.122
100.127
100.132
100.138
100.144
100.15
100.156
100.162
100.168
100.175
100.181
100.187
100.193
100.199
100.205
100.21
100.216
100.221
100.226
100.231
100.236
100.24
100.245
100.25
100.255
100.26
100.266
100.272
100.278
100.284
100.292
100.3
100.308
100.318
100.328
100.339
100.351
100.363
100.376
100.39
100.405
100.42
100.435
100.45
100.465
100.479
100.493
100.506
100.518
100.529
100.538
100.546
100.551
100.554
100.555
100.554
100.55
100.544
100.535
100.524
100.51
100.494
100.476
100.457
100.435
100.412
100.388
100.363
100.337
100.31
100.283
100.256
100.23
100.203
100.177
100.152
100.127
100.104
100.082
100.06
100.04
100.022
100.004
99.9883
99.9735
99.96
99.9477
99.9366
99.9267
99.9179
99.9102
99.9034
99.8977
99.8929
99.8889
99.8859
99.8837
99.8823
99.8819
99.8823
99.8836
99.8859
99.8891
99.8933
99.8986
99.905
99.9125
99.9211
99.931
99.9421
99.9545
99.9682
99.9831
99.9993
100.017
100.036
100.055
100.077
100.099
100.122
100.146
100.171
100.196
100.222
100.249
100.275
100.302
100.329
100.356
100.382
100.409
100.434
100.459
100.483
100.507
100.53
100.551
100.572
100.591
100.61
100.627
100.643
100.658
100.672
100.685
100.697
100.708
100.718
100.726
100.734
100.741
100.748
100.753
100.758
100.762
100.765
100.768
100.771
100.773
100.775
100.776
100.778
100.778
100.779
100.78
100.78
100.781
100.781
100.781
100.781
100.781
99.6251
99.6244
99.6234
99.6219
99.6201
99.6178
99.6152
99.6121
99.6088
99.605
99.601
99.5966
99.5918
99.5868
99.5814
99.5757
99.5697
99.5634
99.5569
99.5502
99.5433
99.5364
99.5295
99.5229
99.5165
99.5107
99.5056
99.5014
99.4984
99.4968
99.4968
99.4986
99.5025
99.5086
99.5171
99.528
99.5415
99.5575
99.576
99.5969
99.6202
99.6455
99.6726
99.7014
99.7315
99.7625
99.7942
99.826
99.8578
99.8891
99.9195
99.9488
99.9765
100.002
100.026
100.048
100.067
100.084
100.098
100.11
100.119
100.126
100.131
100.134
100.135
100.135
100.133
100.13
100.127
100.123
100.12
100.116
100.112
100.109
100.106
100.104
100.102
100.101
100.101
100.102
100.103
100.106
100.108
100.112
100.116
100.121
100.126
100.131
100.137
100.143
100.149
100.155
100.162
100.168
100.175
100.181
100.187
100.194
100.2
100.206
100.212
100.217
100.223
100.228
100.233
100.239
100.244
100.249
100.254
100.26
100.265
100.271
100.277
100.284
100.291
100.299
100.307
100.316
100.325
100.336
100.346
100.358
100.37
100.383
100.396
100.409
100.423
100.436
100.45
100.463
100.476
100.488
100.499
100.508
100.517
100.524
100.529
100.533
100.534
100.533
100.531
100.526
100.519
100.51
100.498
100.485
100.47
100.453
100.434
100.414
100.392
100.37
100.347
100.323
100.298
100.274
100.249
100.225
100.2
100.177
100.154
100.132
100.11
100.09
100.071
100.053
100.036
100.021
100.006
99.9931
99.9811
99.9702
99.9604
99.9516
99.9438
99.9369
99.9309
99.9257
99.9212
99.9175
99.9145
99.9121
99.9105
99.9095
99.9093
99.9097
99.911
99.913
99.916
99.9198
99.9246
99.9305
99.9375
99.9456
99.9549
99.9655
99.9774
99.9907
100.005
100.021
100.038
100.057
100.077
100.098
100.12
100.143
100.167
100.192
100.218
100.244
100.27
100.297
100.324
100.351
100.378
100.405
100.431
100.457
100.482
100.506
100.529
100.552
100.573
100.593
100.613
100.631
100.648
100.664
100.678
100.692
100.704
100.716
100.726
100.735
100.744
100.751
100.758
100.764
100.769
100.773
100.777
100.78
100.783
100.785
100.787
100.789
100.79
100.791
100.792
100.792
100.793
100.793
100.793
100.794
100.794
100.794
99.6261
99.6254
99.6244
99.6229
99.621
99.6186
99.6159
99.6128
99.6093
99.6055
99.6013
99.5968
99.5919
99.5867
99.5812
99.5754
99.5693
99.563
99.5564
99.5498
99.543
99.5363
99.5297
99.5233
99.5174
99.512
99.5074
99.5038
99.5014
99.5003
99.5009
99.5032
99.5075
99.514
99.5227
99.5338
99.5473
99.5633
99.5816
99.6022
99.6249
99.6497
99.6762
99.7043
99.7336
99.7639
99.7947
99.8258
99.8567
99.8872
99.9169
99.9455
99.9727
99.9981
100.022
100.043
100.062
100.079
100.093
100.105
100.115
100.122
100.127
100.13
100.132
100.132
100.131
100.129
100.126
100.123
100.119
100.115
100.112
100.109
100.106
100.104
100.102
100.101
100.101
100.101
100.103
100.105
100.107
100.111
100.115
100.119
100.124
100.13
100.135
100.141
100.148
100.154
100.161
100.168
100.174
100.181
100.188
100.194
100.201
100.207
100.214
100.22
100.226
100.231
100.237
100.243
100.249
100.254
100.26
100.266
100.273
100.279
100.286
100.293
100.301
100.309
100.317
100.326
100.336
100.346
100.357
100.368
100.379
100.391
100.403
100.415
100.427
100.438
100.449
100.46
100.47
100.479
100.487
100.494
100.5
100.504
100.506
100.507
100.506
100.504
100.499
100.493
100.485
100.475
100.464
100.451
100.436
100.42
100.403
100.385
100.366
100.345
100.325
100.303
100.282
100.26
100.239
100.217
100.196
100.176
100.156
100.137
100.119
100.102
100.085
100.07
100.056
100.043
100.031
100.02
100.01
100.001
99.9929
99.9856
99.9792
99.9734
99.9683
99.9637
99.9597
99.9561
99.9531
99.9504
99.9482
99.9465
99.9452
99.9444
99.9442
99.9446
99.9458
99.9477
99.9504
99.9541
99.9588
99.9647
99.9717
99.98
99.9896
100.001
100.013
100.027
100.042
100.059
100.077
100.097
100.118
100.14
100.163
100.187
100.212
100.238
100.264
100.291
100.318
100.345
100.373
100.4
100.427
100.453
100.479
100.504
100.528
100.551
100.573
100.595
100.615
100.634
100.652
100.668
100.684
100.698
100.711
100.723
100.734
100.744
100.753
100.761
100.768
100.774
100.78
100.784
100.788
100.792
100.795
100.797
100.799
100.801
100.802
100.803
100.804
100.805
100.805
100.805
100.806
100.806
100.806
100.806
99.6273
99.6266
99.6256
99.624
99.6221
99.6197
99.6169
99.6136
99.61
99.6061
99.6017
99.597
99.592
99.5866
99.581
99.575
99.5688
99.5625
99.5559
99.5493
99.5427
99.5363
99.53
99.524
99.5186
99.5138
99.5099
99.507
99.5052
99.5049
99.5061
99.5091
99.514
99.5209
99.5299
99.5412
99.5548
99.5706
99.5886
99.6088
99.631
99.6551
99.6809
99.708
99.7364
99.7656
99.7954
99.8254
99.8554
99.8849
99.9137
99.9414
99.9678
99.9926
100.016
100.037
100.056
100.072
100.087
100.099
100.109
100.116
100.122
100.126
100.128
100.129
100.128
100.127
100.124
100.121
100.118
100.115
100.112
100.109
100.106
100.104
100.102
100.101
100.101
100.101
100.102
100.104
100.106
100.11
100.113
100.118
100.123
100.128
100.134
100.14
100.147
100.153
100.16
100.167
100.174
100.182
100.189
100.196
100.203
100.209
100.216
100.223
100.229
100.236
100.242
100.249
100.255
100.261
100.268
100.275
100.282
100.289
100.296
100.304
100.312
100.321
100.33
100.339
100.349
100.359
100.369
100.379
100.389
100.4
100.41
100.42
100.43
100.439
100.447
100.455
100.462
100.467
100.472
100.476
100.478
100.479
100.478
100.476
100.473
100.468
100.462
100.454
100.445
100.435
100.424
100.411
100.397
100.383
100.367
100.351
100.334
100.316
100.299
100.281
100.262
100.244
100.226
100.209
100.192
100.175
100.159
100.144
100.129
100.115
100.103
100.091
100.08
100.07
100.061
100.053
100.045
100.038
100.032
100.027
100.022
100.017
100.013
100.009
100.006
100.002
99.9987
99.9956
99.9926
99.9897
99.9871
99.9848
99.9828
99.9812
99.9801
99.9797
99.98
99.9811
99.9833
99.9865
99.9909
99.9966
100.004
100.012
100.022
100.034
100.047
100.062
100.079
100.096
100.116
100.137
100.159
100.182
100.207
100.232
100.258
100.285
100.312
100.339
100.367
100.394
100.421
100.448
100.474
100.5
100.525
100.549
100.572
100.594
100.614
100.634
100.653
100.67
100.686
100.701
100.715
100.728
100.739
100.749
100.759
100.767
100.774
100.781
100.786
100.791
100.796
100.799
100.802
100.805
100.807
100.808
100.81
100.811
100.812
100.812
100.813
100.813
100.814
100.814
100.814
100.814
99.6288
99.6281
99.627
99.6254
99.6234
99.6209
99.618
99.6146
99.6109
99.6067
99.6022
99.5973
99.5921
99.5865
99.5807
99.5746
99.5683
99.5619
99.5554
99.5489
99.5425
99.5363
99.5305
99.5251
99.5202
99.5162
99.513
99.5109
99.51
99.5105
99.5125
99.5162
99.5217
99.5292
99.5386
99.5501
99.5637
99.5794
99.5971
99.6168
99.6383
99.6616
99.6864
99.7125
99.7397
99.7677
99.7963
99.8251
99.8538
99.8821
99.9098
99.9365
99.962
99.9861
100.008
100.029
100.048
100.064
100.079
100.091
100.101
100.109
100.116
100.12
100.123
100.124
100.125
100.124
100.122
100.12
100.117
100.114
100.111
100.108
100.106
100.104
100.102
100.101
100.1
100.1
100.101
100.103
100.105
100.108
100.112
100.116
100.121
100.127
100.133
100.139
100.146
100.153
100.16
100.167
100.175
100.182
100.19
100.197
100.205
100.212
100.219
100.227
100.234
100.241
100.248
100.255
100.263
100.27
100.277
100.285
100.293
100.301
100.309
100.318
100.326
100.335
100.344
100.354
100.363
100.372
100.382
100.391
100.4
100.409
100.417
100.424
100.431
100.437
100.443
100.447
100.45
100.452
100.453
100.453
100.452
100.449
100.446
100.441
100.435
100.428
100.42
100.411
100.401
100.39
100.379
100.367
100.354
100.341
100.327
100.313
100.298
100.284
100.269
100.255
100.24
100.226
100.212
100.199
100.186
100.174
100.162
100.151
100.14
100.131
100.122
100.114
100.107
100.1
100.094
100.089
100.085
100.08
100.077
100.073
100.07
100.066
100.063
100.06
100.056
100.053
100.049
100.045
100.041
100.037
100.033
100.029
100.025
100.021
100.017
100.014
100.012
100.011
100.01
100.011
100.012
100.015
100.02
100.026
100.034
100.043
100.054
100.067
100.082
100.098
100.116
100.136
100.157
100.179
100.203
100.227
100.253
100.279
100.306
100.333
100.36
100.388
100.415
100.442
100.468
100.494
100.519
100.543
100.567
100.589
100.611
100.631
100.65
100.667
100.684
100.699
100.713
100.726
100.738
100.749
100.758
100.767
100.774
100.781
100.787
100.792
100.796
100.8
100.803
100.805
100.808
100.809
100.811
100.812
100.813
100.813
100.814
100.814
100.815
100.815
100.815
100.815
99.6305
99.6298
99.6286
99.627
99.6248
99.6222
99.6192
99.6157
99.6118
99.6074
99.6027
99.5976
99.5921
99.5864
99.5804
99.5742
99.5678
99.5614
99.5549
99.5486
99.5425
99.5366
99.5313
99.5265
99.5223
99.5191
99.5168
99.5156
99.5156
99.5171
99.52
99.5246
99.5308
99.5388
99.5486
99.5604
99.574
99.5895
99.6068
99.626
99.6468
99.6691
99.6928
99.7177
99.7436
99.7702
99.7974
99.8247
99.852
99.879
99.9053
99.9309
99.9553
99.9785
100
100.02
100.038
100.055
100.069
100.082
100.092
100.101
100.108
100.113
100.117
100.119
100.121
100.12
100.12
100.118
100.116
100.113
100.111
100.108
100.106
100.104
100.102
100.101
100.1
100.1
100.101
100.102
100.104
100.107
100.111
100.115
100.12
100.125
100.131
100.138
100.145
100.152
100.159
100.167
100.175
100.183
100.191
100.199
100.207
100.215
100.223
100.231
100.239
100.247
100.255
100.263
100.272
100.28
100.288
100.297
100.306
100.314
100.323
100.332
100.342
100.351
100.36
100.369
100.378
100.386
100.395
100.402
100.41
100.416
100.422
100.427
100.431
100.434
100.435
100.436
100.436
100.434
100.432
100.428
100.423
100.417
100.41
100.403
100.394
100.385
100.375
100.365
100.354
100.343
100.332
100.32
100.309
100.297
100.285
100.273
100.261
100.25
100.239
100.228
100.217
100.207
100.197
100.188
100.18
100.172
100.165
100.158
100.152
100.147
100.143
100.139
100.136
100.133
100.131
100.129
100.127
100.125
100.124
100.122
100.12
100.118
100.116
100.113
100.11
100.106
100.102
100.097
100.092
100.086
100.08
100.074
100.068
100.062
100.056
100.051
100.046
100.042
100.039
100.037
100.036
100.037
100.039
100.043
100.048
100.056
100.065
100.076
100.089
100.103
100.12
100.138
100.158
100.179
100.201
100.225
100.249
100.275
100.301
100.327
100.354
100.381
100.408
100.434
100.46
100.486
100.511
100.535
100.558
100.58
100.602
100.622
100.641
100.659
100.675
100.69
100.705
100.718
100.729
100.74
100.75
100.758
100.766
100.773
100.779
100.784
100.788
100.792
100.795
100.798
100.8
100.802
100.803
100.805
100.805
100.806
100.807
100.807
100.807
100.808
100.808
100.808
99.6324
99.6316
99.6304
99.6287
99.6264
99.6237
99.6205
99.6168
99.6127
99.6081
99.6032
99.5979
99.5922
99.5863
99.5801
99.5737
99.5673
99.5609
99.5546
99.5484
99.5426
99.5373
99.5325
99.5283
99.525
99.5226
99.5213
99.5211
99.5222
99.5247
99.5286
99.534
99.541
99.5496
99.5599
99.5719
99.5855
99.6008
99.6178
99.6362
99.6562
99.6775
99.7
99.7235
99.748
99.773
99.7986
99.8243
99.85
99.8754
99.9004
99.9246
99.9479
99.97
99.9909
100.01
100.028
100.044
100.059
100.072
100.083
100.092
100.1
100.106
100.11
100.114
100.116
100.116
100.116
100.116
100.114
100.112
100.11
100.108
100.106
100.104
100.102
100.101
100.1
100.1
100.1
100.102
100.104
100.106
100.11
100.114
100.119
100.124
100.13
100.137
100.144
100.151
100.159
100.167
100.175
100.184
100.192
100.201
100.21
100.219
100.227
100.236
100.245
100.254
100.263
100.273
100.282
100.291
100.301
100.31
100.32
100.329
100.339
100.348
100.358
100.367
100.376
100.384
100.392
100.4
100.406
100.412
100.418
100.422
100.425
100.427
100.427
100.427
100.425
100.422
100.418
100.413
100.407
100.4
100.391
100.383
100.373
100.363
100.352
100.341
100.33
100.319
100.307
100.296
100.285
100.274
100.263
100.253
100.243
100.233
100.224
100.215
100.207
100.2
100.193
100.187
100.182
100.177
100.173
100.17
100.168
100.166
100.165
100.164
100.164
100.164
100.165
100.166
100.168
100.169
100.17
100.171
100.172
100.172
100.172
100.171
100.169
100.167
100.164
100.16
100.155
100.149
100.143
100.136
100.128
100.12
100.112
100.104
100.096
100.088
100.081
100.075
100.07
100.065
100.063
100.061
100.061
100.063
100.066
100.072
100.079
100.088
100.099
100.112
100.127
100.144
100.162
100.181
100.202
100.224
100.248
100.272
100.297
100.322
100.347
100.373
100.399
100.425
100.45
100.475
100.499
100.522
100.545
100.567
100.587
100.607
100.626
100.643
100.659
100.675
100.689
100.701
100.713
100.724
100.733
100.742
100.75
100.756
100.762
100.768
100.772
100.776
100.779
100.782
100.784
100.786
100.788
100.789
100.79
100.791
100.791
100.792
100.792
100.792
100.793
100.793
99.6344
99.6336
99.6323
99.6305
99.6281
99.6252
99.6219
99.618
99.6137
99.6089
99.6037
99.5981
99.5923
99.5861
99.5798
99.5734
99.5669
99.5606
99.5544
99.5485
99.5431
99.5383
99.5341
99.5308
99.5283
99.5269
99.5266
99.5275
99.5297
99.5333
99.5382
99.5445
99.5523
99.5615
99.5723
99.5845
99.5981
99.6132
99.6297
99.6474
99.6665
99.6866
99.7078
99.7299
99.7527
99.7761
99.7999
99.8239
99.8479
99.8716
99.895
99.9178
99.9398
99.9608
99.9808
99.9995
100.017
100.033
100.047
100.06
100.072
100.082
100.09
100.097
100.103
100.107
100.11
100.112
100.113
100.113
100.112
100.111
100.109
100.107
100.105
100.104
100.102
100.101
100.1
100.1
100.1
100.102
100.104
100.106
100.11
100.114
100.118
100.124
100.13
100.137
100.144
100.151
100.159
100.168
100.176
100.185
100.195
100.204
100.213
100.223
100.233
100.242
100.252
100.262
100.273
100.283
100.293
100.303
100.314
100.324
100.334
100.345
100.355
100.364
100.374
100.383
100.391
100.399
100.405
100.411
100.416
100.42
100.423
100.424
100.424
100.423
100.421
100.417
100.412
100.405
100.398
100.389
100.38
100.369
100.358
100.347
100.335
100.323
100.31
100.298
100.286
100.273
100.262
100.25
100.239
100.229
100.219
100.21
100.202
100.195
100.188
100.183
100.178
100.174
100.171
100.169
100.167
100.167
100.168
100.169
100.171
100.174
100.177
100.181
100.185
100.19
100.195
100.2
100.204
100.209
100.213
100.216
100.219
100.221
100.222
100.222
100.221
100.219
100.216
100.212
100.206
100.2
100.192
100.184
100.175
100.166
100.156
100.146
100.136
100.127
100.118
100.11
100.103
100.097
100.092
100.088
100.087
100.087
100.088
100.092
100.097
100.105
100.114
100.125
100.138
100.153
100.169
100.187
100.206
100.226
100.248
100.27
100.293
100.317
100.341
100.365
100.389
100.413
100.437
100.46
100.483
100.506
100.527
100.548
100.568
100.587
100.605
100.621
100.637
100.652
100.665
100.678
100.689
100.7
100.709
100.718
100.726
100.732
100.738
100.744
100.748
100.752
100.756
100.759
100.761
100.763
100.765
100.766
100.768
100.769
100.769
100.77
100.77
100.77
100.771
100.771
99.6365
99.6356
99.6343
99.6323
99.6298
99.6268
99.6232
99.6192
99.6146
99.6096
99.6042
99.5984
99.5923
99.586
99.5796
99.5731
99.5667
99.5604
99.5545
99.549
99.5441
99.5399
99.5364
99.5339
99.5324
99.532
99.5328
99.5349
99.5382
99.5428
99.5487
99.556
99.5646
99.5744
99.5856
99.598
99.6116
99.6264
99.6424
99.6594
99.6774
99.6964
99.7162
99.7367
99.7578
99.7794
99.8014
99.8235
99.8456
99.8676
99.8892
99.9104
99.9311
99.9509
99.9699
99.9879
100.005
100.021
100.035
100.048
100.06
100.071
100.08
100.088
100.094
100.1
100.104
100.107
100.108
100.109
100.109
100.109
100.108
100.107
100.105
100.104
100.102
100.101
100.101
100.101
100.101
100.102
100.104
100.106
100.11
100.114
100.118
100.124
100.13
100.137
100.144
100.152
100.16
100.169
100.178
100.187
100.197
100.207
100.217
100.228
100.239
100.249
100.26
100.272
100.283
100.294
100.305
100.317
100.328
100.339
100.35
100.36
100.37
100.38
100.389
100.397
100.405
100.411
100.416
100.42
100.423
100.425
100.425
100.423
100.421
100.416
100.41
100.403
100.395
100.385
100.375
100.363
100.351
100.338
100.325
100.311
100.297
100.283
100.269
100.256
100.243
100.23
100.218
100.207
100.197
100.187
100.179
100.171
100.165
100.16
100.155
100.152
100.151
100.15
100.151
100.152
100.155
100.159
100.163
100.169
100.175
100.182
100.19
100.198
100.207
100.215
100.223
100.232
100.24
100.247
100.253
100.259
100.264
100.267
100.27
100.271
100.27
100.269
100.266
100.261
100.255
100.248
100.24
100.231
100.221
100.21
100.199
100.188
100.177
100.167
100.156
100.147
100.138
100.13
100.124
100.119
100.116
100.114
100.114
100.116
100.119
100.125
100.132
100.141
100.152
100.165
100.179
100.195
100.211
100.23
100.249
100.269
100.29
100.311
100.333
100.355
100.377
100.399
100.421
100.443
100.464
100.485
100.505
100.525
100.543
100.561
100.578
100.594
100.609
100.623
100.636
100.649
100.66
100.67
100.679
100.688
100.696
100.702
100.709
100.714
100.719
100.723
100.727
100.73
100.733
100.735
100.737
100.738
100.74
100.741
100.742
100.742
100.743
100.743
100.744
100.744
99.6386
99.6376
99.6362
99.6342
99.6315
99.6283
99.6246
99.6203
99.6155
99.6103
99.6046
99.5986
99.5924
99.5859
99.5794
99.573
99.5666
99.5606
99.555
99.5499
99.5456
99.542
99.5394
99.5378
99.5373
99.538
99.5399
99.5431
99.5475
99.5532
99.5602
99.5684
99.5777
99.5882
99.5998
99.6123
99.6259
99.6404
99.6558
99.672
99.689
99.7067
99.725
99.7439
99.7632
99.7829
99.8029
99.823
99.8432
99.8633
99.8832
99.9028
99.9219
99.9405
99.9585
99.9757
99.9921
100.008
100.022
100.036
100.048
100.059
100.069
100.078
100.085
100.092
100.097
100.101
100.104
100.105
100.107
100.107
100.107
100.106
100.105
100.104
100.103
100.102
100.102
100.102
100.102
100.103
100.105
100.107
100.11
100.114
100.119
100.125
100.131
100.138
100.145
100.153
100.162
100.171
100.18
100.19
100.201
100.211
100.222
100.234
100.245
100.257
100.269
100.281
100.294
100.306
100.318
100.33
100.342
100.354
100.365
100.375
100.385
100.395
100.403
100.41
100.416
100.421
100.424
100.426
100.427
100.426
100.423
100.419
100.413
100.405
100.397
100.387
100.375
100.363
100.35
100.336
100.321
100.306
100.291
100.276
100.26
100.245
100.231
100.217
100.203
100.19
100.179
100.168
100.158
100.15
100.142
100.136
100.132
100.129
100.127
100.126
100.128
100.13
100.134
100.139
100.145
100.153
100.161
100.171
100.181
100.192
100.203
100.215
100.227
100.239
100.251
100.262
100.272
100.282
100.291
100.299
100.305
100.31
100.313
100.315
100.316
100.314
100.311
100.307
100.301
100.293
100.285
100.275
100.265
100.253
100.242
100.23
100.218
100.206
100.195
100.185
100.175
100.166
100.158
100.152
100.147
100.144
100.142
100.142
100.144
100.148
100.153
100.16
100.168
100.179
100.19
100.203
100.218
100.233
100.25
100.268
100.286
100.305
100.324
100.344
100.364
100.384
100.404
100.424
100.443
100.462
100.481
100.499
100.516
100.533
100.549
100.564
100.578
100.592
100.604
100.616
100.627
100.637
100.646
100.655
100.662
100.669
100.675
100.681
100.686
100.69
100.694
100.698
100.701
100.703
100.705
100.707
100.709
100.71
100.711
100.712
100.713
100.713
100.714
100.714
99.6406
99.6397
99.6382
99.636
99.6332
99.6298
99.6259
99.6213
99.6163
99.6109
99.605
99.5988
99.5925
99.586
99.5794
99.5731
99.5669
99.5612
99.556
99.5514
99.5477
99.5449
99.5431
99.5425
99.543
99.5448
99.5479
99.5522
99.5578
99.5646
99.5725
99.5816
99.5916
99.6027
99.6146
99.6273
99.6408
99.6549
99.6697
99.6851
99.701
99.7173
99.7341
99.7512
99.7687
99.7865
99.8045
99.8225
99.8407
99.8589
99.8769
99.8948
99.9125
99.9298
99.9467
99.9631
99.9789
99.9941
100.008
100.022
100.035
100.047
100.057
100.067
100.075
100.083
100.089
100.094
100.098
100.101
100.103
100.104
100.105
100.105
100.105
100.104
100.104
100.103
100.103
100.103
100.104
100.105
100.106
100.109
100.112
100.116
100.121
100.126
100.132
100.139
100.147
100.155
100.164
100.173
100.183
100.194
100.205
100.217
100.228
100.241
100.253
100.266
100.279
100.292
100.305
100.318
100.331
100.344
100.356
100.368
100.379
100.389
100.399
100.407
100.414
100.42
100.424
100.427
100.429
100.428
100.426
100.422
100.417
100.41
100.401
100.391
100.379
100.367
100.353
100.338
100.323
100.307
100.291
100.274
100.258
100.241
100.225
100.21
100.195
100.18
100.167
100.155
100.143
100.133
100.125
100.117
100.111
100.107
100.104
100.103
100.104
100.106
100.11
100.115
100.122
100.13
100.139
100.15
100.162
100.175
100.188
100.203
100.217
100.232
100.247
100.262
100.276
100.29
100.303
100.314
100.325
100.334
100.342
100.348
100.352
100.355
100.356
100.355
100.352
100.348
100.342
100.335
100.326
100.316
100.306
100.294
100.283
100.27
100.258
100.246
100.234
100.223
100.212
100.202
100.194
100.186
100.18
100.175
100.172
100.17
100.17
100.171
100.175
100.179
100.185
100.193
100.202
100.213
100.225
100.237
100.251
100.266
100.282
100.298
100.315
100.333
100.35
100.368
100.386
100.404
100.421
100.439
100.456
100.472
100.488
100.504
100.519
100.533
100.547
100.559
100.571
100.583
100.593
100.603
100.612
100.621
100.628
100.635
100.642
100.647
100.652
100.657
100.661
100.665
100.668
100.671
100.673
100.675
100.677
100.679
100.68
100.681
100.682
100.682
100.683
100.683
99.6426
99.6416
99.64
99.6377
99.6348
99.6312
99.627
99.6223
99.6171
99.6114
99.6054
99.5991
99.5926
99.5861
99.5797
99.5735
99.5676
99.5622
99.5575
99.5536
99.5506
99.5486
99.5478
99.5481
99.5497
99.5526
99.5568
99.5623
99.5689
99.5768
99.5856
99.5955
99.6062
99.6178
99.63
99.6428
99.6561
99.6698
99.684
99.6984
99.7132
99.7281
99.7434
99.7588
99.7744
99.7902
99.8061
99.8221
99.8382
99.8543
99.8705
99.8867
99.9028
99.9188
99.9346
99.9501
99.9653
99.9801
99.9945
100.008
100.021
100.034
100.045
100.055
100.065
100.073
100.081
100.087
100.092
100.096
100.099
100.102
100.103
100.104
100.105
100.105
100.105
100.105
100.105
100.105
100.106
100.107
100.109
100.111
100.114
100.118
100.123
100.128
100.134
100.142
100.149
100.158
100.167
100.177
100.188
100.199
100.21
100.223
100.235
100.249
100.262
100.276
100.289
100.303
100.317
100.331
100.344
100.357
100.369
100.381
100.392
100.401
100.41
100.417
100.423
100.427
100.429
100.43
100.429
100.426
100.421
100.415
100.406
100.397
100.385
100.373
100.359
100.344
100.328
100.312
100.295
100.278
100.26
100.243
100.226
100.209
100.192
100.177
100.162
100.148
100.135
100.123
100.113
100.104
100.097
100.091
100.087
100.084
100.083
100.084
100.087
100.091
100.098
100.105
100.115
100.126
100.138
100.152
100.166
100.182
100.198
100.215
100.232
100.249
100.267
100.283
100.3
100.315
100.329
100.343
100.355
100.365
100.374
100.381
100.386
100.389
100.391
100.39
100.388
100.384
100.379
100.372
100.364
100.354
100.344
100.333
100.321
100.309
100.296
100.284
100.272
100.26
100.248
100.238
100.228
100.22
100.212
100.206
100.201
100.198
100.196
100.195
100.196
100.199
100.202
100.208
100.214
100.222
100.232
100.242
100.254
100.266
100.279
100.293
100.308
100.323
100.338
100.354
100.37
100.386
100.402
100.418
100.433
100.448
100.463
100.478
100.492
100.505
100.518
100.53
100.541
100.552
100.563
100.572
100.581
100.589
100.597
100.604
100.61
100.616
100.621
100.626
100.63
100.634
100.637
100.64
100.643
100.645
100.647
100.649
100.65
100.651
100.652
100.652
100.653
100.653
99.6444
99.6433
99.6417
99.6392
99.6361
99.6324
99.6281
99.6231
99.6177
99.6119
99.6058
99.5994
99.5929
99.5865
99.5802
99.5742
99.5687
99.5638
99.5597
99.5565
99.5543
99.5532
99.5533
99.5547
99.5574
99.5614
99.5667
99.5733
99.581
99.5897
99.5995
99.6101
99.6214
99.6333
99.6457
99.6585
99.6716
99.6849
99.6984
99.7119
99.7255
99.7391
99.7527
99.7664
99.7801
99.7938
99.8077
99.8216
99.8356
99.8498
99.8641
99.8785
99.8931
99.9077
99.9224
99.937
99.9516
99.966
99.9802
99.994
100.007
100.02
100.032
100.043
100.054
100.063
100.072
100.079
100.086
100.091
100.095
100.099
100.101
100.103
100.105
100.105
100.106
100.107
100.107
100.108
100.109
100.11
100.112
100.114
100.117
100.121
100.126
100.132