# vtk DataFile Version 2.0
HPC Tutorials: Michael Bader, Kaveh Rahnema, Oliver Meister
ASCII
DATASET RECTILINEAR_GRID
DIMENSIONS 257 257 1
X_COORDINATES 257 float
0
0.005
0.01
0.015
0.02
0.025
0.03
0.035
0.04
0.045
0.05
0.055
0.06
0.065
0.07
0.075
0.08
0.085
0.09
0.095
0.1
0.105
0.11
0.115
0.12
0.125
0.13
0.135
0.14
0.145
0.15
0.155
0.16
0.165
0.17
0.175
0.18
0.185
0.19
0.195
0.2
0.205
0.21
0.215
0.22
0.225
0.23
0.235
0.24
0.245
0.25
0.255
0.26
0.265
0.27
0.275
0.28
0.285
0.29
0.295
0.3
0.305
0.31
0.315
0.32
0.325
0.33
0.335
0.34
0.345
0.35
0.355
0.36
0.365
0.37
0.375
0.38
0.385
0.39
0.395
0.4
0.405
0.41
0.415
0.42
0.425
0.43
0.435
0.44
0.445
0.45
0.455
0.46
0.465
0.47
0.475
0.48
0.485
0.49
0.495
0.5
0.505
0.51
0.515
0.52
0.525
0.53
0.535
0.54
0.545
0.55
0.555
0.56
0.565
0.57
0.575
0.58
0.585
0.59
0.595
0.6
0.605
0.61
0.615
0.62
0.625
0.63
0.635
0.64
0.645
0.65
0.655
0.66
0.665
0.67
0.675
0.68
0.685
0.69
0.695
0.7
0.705
0.71
0.715
0.72
0.725
0.73
0.735
0.74
0.745
0.75
0.755
0.76
0.765
0.77
0.775
0.78
0.785
0.79
0.795
0.8
0.805
0.81
0.815
0.82
0.825
0.83
0.835
0.84
0.845
0.85
0.855
0.86
0.865
0.87
0.875
0.88
0.885
0.89
0.895
0.9
0.905
0.91
0.915
0.92
0.925
0.93
0.935
0.94
0.945
0.95
0.955
0.96
0.965
0.97
0.975
0.98
0.985
0.99
0.995
1
1.005
1.01
1.015
1.02
1.025
1.03
1.035
1.04
1.045
1.05
1.055
1.06
1.065
1.07
1.075
1.08
1.085
1.09
1.095
1.1
1.105
1.11
1.115
1.12
1.125
1.13
1.135
1.14
1.145
1.15
1.155
1.16
1.165
1.17
1.175
1.18
1.185
1.19
1.195
1.2
1.205
1.21
1.215
1.22
1.225
1.23
1.235
1.24
1.245
1.25
1.255
1.26
1.265
1.27
1.275
1.28
Y_COORDINATES 257 float
0
0.005
0.01
0.015
0.02
0.025
0.03
0.035
0.04
0.045
0.05
0.055
0.06
0.065
0.07
0.075
0.08
0.085
0.09
0.095
0.1
0.105
0.11
0.115
0.12
0.125
0.13
0.135
0.14
0.145
0.15
0.155
0.16
0.165
0.17
0.175
0.18
0.185
0.19
0.195
0.2
0.205
0.21
0.215
0.22
0.225
0.23
0.235
0.24
0.245
0.25
0.255
0.26
0.265
0.27
0.275
0.28
0.285
0.29
0.295
0.3
0.305
0.31
0.315
0.32
0.325
0.33
0.335
0.34
0.345
0.35
0.355
0.36
0.365
0.37
0.375
0.38
0.385
0.39
0.395
0.4
0.405
0.41
0.415
0.42
0.425
0.43
0.435
0.44
0.445
0.45
0.455
0.46
0.465
0.47
0.475
0.48
0.485
0.49
0.495
0.5
0.505
0.51
0.515
0.52
0.525
0.53
0.535
0.54
0.545
0.55
0.555
0.56
0.565
0.57
0.575
0.58
0.585
0.59
0.595
0.6
0.605
0.61
0.615
0.62
0.625
0.63
0.635
0.64
0.645
0.65
0.655
0.66
0.665
0.67
0.675
0.68
0.685
0.69
0.695
0.7
0.705
0.71
0.715
0.72
0.725
0.73
0.735
0.74
0.745
0.75
0.755
0.76
0.765
0.77
0.775
0.78
0.785
0.79
0.795
0.8
0.805
0.81
0.815
0.82
0.825
0.83
0.835
0.84
0.845
0.85
0.855
0.86
0.865
0.87
0.875
0.88
0.885
0.89
0.895
0.9
0.905
0.91
0.915
0.92
0.925
0.93
0.935
0.94
0.945
0.95
0.955
0.96
0.965
0.97
0.975
0.98
0.985
0.99
0.995
1
1.005
1.01
1.015
1.02
1.025
1.03
1.035
1.04
1.045
1.05
1.055
1.06
1.065
1.07
1.075
1.08
1.085
1.09
1.095
1.1
1.105
1.11
1.115
1.12
1.125
1.13
1.135
1.14
1.145
1.15
1.155
1.16
1.165
1.17
1.175
1.18
1.185
1.19
1.195
1.2
1.205
1.21
1.215
1.22
1.225
1.23
1.235
1.24
1.245
1.25
1.255
1.26
1.265
1.27
1.275
1.28
Z_COORDINATES 1 float
0
CELL_DATA 65536
SCALARS H float 1
LOOKUP_TABLE default
101.5
101.5
101.5
101.5
101.5
101.499
101.499
101.497
101.495
101.492
101.489
101.484
101.478
101.471
101.462
101.452
101.441
101.429
101.415
101.4
101.384
101.368
101.35
101.332
101.313
101.294
101.275
101.256
101.237
101.219
101.201
101.183
101.167
101.151
101.136
101.122
101.109
101.097
101.085
101.074
101.064
101.054
101.044
101.034
101.025
101.015
101.005
100.994
100.982
100.971
100.958
100.945
100.931
100.918
100.904
100.89
100.877
100.865
100.854
100.844
100.836
100.829
100.825
100.824
100.825
100.829
100.835
100.844
100.856
100.87
100.887
100.905
100.926
100.948
100.971
100.995
101.02
101.046
101.071
101.096
101.12
101.144
101.166
101.187
101.207
101.225
101.241
101.255
101.268
101.278
101.287
101.294
101.299
101.302
101.304
101.304
101.303
101.301
101.298
101.294
101.289
101.283
101.277
101.271
101.263
101.256
101.248
101.24
101.232
101.223
101.214
101.205
101.196
101.187
101.177
101.167
101.156
101.146
101.135
101.124
101.113
101.101
101.09
101.078
101.066
101.055
101.043
101.031
101.02
101.008
100.998
100.987
100.977
100.967
100.957
100.948
100.94
100.932
100.925
100.918
100.912
100.907
100.902
100.898
100.894
100.892
100.89
100.888
100.887
100.887
100.888
100.889
100.891
100.893
100.896
100.9
100.904
100.908
100.913
100.919
100.924
100.93
100.936
100.943
100.949
100.955
100.962
100.968
100.974
100.979
100.984
100.989
100.993
100.996
100.999
101.001
101.002
101.002
101.002
101
100.998
100.994
100.989
100.984
100.977
100.97
100.961
100.951
100.941
100.929
100.917
100.904
100.89
100.875
100.859
100.843
100.826
100.809
100.791
100.773
100.754
100.735
100.716
100.697
100.678
100.659
100.64
100.622
100.604
100.586
100.569
100.553
100.537
100.523
100.509
100.497
100.485
100.475
100.465
100.457
100.451
100.445
100.441
100.438
100.436
100.435
100.436
100.437
100.439
100.442
100.445
100.45
100.454
100.459
100.465
100.47
100.476
100.482
100.487
100.493
100.498
100.504
100.508
100.513
100.517
100.521
100.524
100.527
100.53
100.532
100.534
100.536
100.537
100.538
100.539
100.539
101.498
101.498
101.498
101.498
101.498
101.497
101.496
101.495
101.493
101.49
101.487
101.482
101.476
101.469
101.46
101.45
101.439
101.427
101.413
101.399
101.383
101.366
101.348
101.33
101.312
101.293
101.274
101.255
101.236
101.218
101.2
101.183
101.166
101.15
101.136
101.122
101.108
101.096
101.085
101.074
101.063
101.053
101.044
101.034
101.024
101.014
101.004
100.994
100.982
100.971
100.958
100.946
100.932
100.919
100.905
100.892
100.879
100.867
100.856
100.847
100.839
100.833
100.829
100.828
100.829
100.833
100.839
100.848
100.86
100.874
100.89
100.909
100.929
100.951
100.974
100.998
101.022
101.047
101.072
101.097
101.121
101.144
101.166
101.187
101.207
101.224
101.24
101.255
101.267
101.278
101.286
101.293
101.298
101.302
101.304
101.304
101.303
101.301
101.298
101.294
101.29
101.284
101.278
101.271
101.264
101.257
101.249
101.241
101.233
101.224
101.216
101.207
101.197
101.188
101.178
101.168
101.158
101.147
101.136
101.125
101.114
101.103
101.091
101.079
101.068
101.056
101.044
101.033
101.021
101.01
100.999
100.988
100.978
100.968
100.958
100.949
100.94
100.932
100.925
100.918
100.911
100.906
100.901
100.896
100.893
100.89
100.887
100.886
100.885
100.884
100.885
100.886
100.888
100.89
100.893
100.896
100.9
100.905
100.91
100.915
100.921
100.927
100.933
100.939
100.945
100.951
100.957
100.963
100.969
100.974
100.979
100.983
100.986
100.989
100.992
100.993
100.994
100.993
100.992
100.99
100.987
100.983
100.978
100.972
100.966
100.958
100.949
100.939
100.929
100.917
100.905
100.892
100.878
100.863
100.848
100.832
100.816
100.799
100.782
100.764
100.746
100.728
100.709
100.691
100.672
100.654
100.636
100.618
100.601
100.584
100.568
100.552
100.537
100.524
100.511
100.499
100.488
100.478
100.47
100.462
100.456
100.451
100.447
100.445
100.443
100.443
100.444
100.445
100.448
100.451
100.455
100.46
100.465
100.47
100.476
100.482
100.488
100.494
100.499
100.505
100.511
100.516
100.521
100.526
100.53
100.534
100.538
100.541
100.544
100.546
100.548
100.55
100.551
100.552
100.553
100.553
101.494
101.494
101.494
101.494
101.494
101.493
101.493
101.491
101.489
101.487
101.483
101.478
101.472
101.465
101.457
101.447
101.436
101.424
101.41
101.396
101.38
101.364
101.346
101.328
101.31
101.291
101.272
101.253
101.235
101.217
101.199
101.182
101.165
101.15
101.135
101.121
101.108
101.095
101.084
101.073
101.063
101.053
101.043
101.033
101.024
101.014
101.004
100.993
100.983
100.971
100.959
100.947
100.934
100.921
100.908
100.895
100.883
100.872
100.861
100.852
100.845
100.839
100.836
100.834
100.836
100.84
100.846
100.855
100.866
100.88
100.896
100.914
100.934
100.955
100.978
101.001
101.025
101.05
101.074
101.098
101.122
101.145
101.167
101.187
101.206
101.224
101.24
101.254
101.266
101.277
101.286
101.292
101.298
101.301
101.303
101.304
101.303
101.302
101.299
101.295
101.29
101.285
101.279
101.273
101.266
101.259
101.251
101.243
101.235
101.226
101.218
101.208
101.199
101.19
101.18
101.17
101.16
101.149
101.138
101.127
101.116
101.105
101.093
101.082
101.07
101.058
101.047
101.035
101.024
101.012
101.001
100.99
100.98
100.969
100.959
100.95
100.941
100.932
100.924
100.917
100.91
100.904
100.898
100.893
100.889
100.886
100.883
100.881
100.88
100.88
100.88
100.881
100.882
100.885
100.888
100.891
100.895
100.9
100.904
100.91
100.915
100.921
100.927
100.933
100.939
100.944
100.95
100.955
100.96
100.965
100.969
100.972
100.975
100.977
100.979
100.98
100.98
100.979
100.977
100.974
100.971
100.966
100.961
100.954
100.947
100.939
100.93
100.921
100.91
100.899
100.887
100.874
100.861
100.846
100.832
100.817
100.801
100.785
100.768
100.752
100.734
100.717
100.7
100.683
100.665
100.648
100.631
100.614
100.598
100.582
100.567
100.553
100.539
100.526
100.514
100.503
100.493
100.485
100.477
100.471
100.465
100.461
100.458
100.456
100.456
100.456
100.457
100.46
100.463
100.467
100.471
100.476
100.482
100.487
100.494
100.5
100.506
100.512
100.519
100.525
100.531
100.536
100.542
100.547
100.551
100.555
100.559
100.563
100.566
100.568
100.57
100.572
100.574
100.575
100.575
100.576
101.488
101.488
101.489
101.489
101.488
101.488
101.487
101.486
101.484
101.481
101.478
101.473
101.467
101.46
101.452
101.443
101.432
101.42
101.406
101.392
101.376
101.36
101.343
101.325
101.307
101.288
101.27
101.251
101.233
101.215
101.197
101.18
101.164
101.148
101.134
101.12
101.107
101.095
101.083
101.072
101.062
101.052
101.042
101.033
101.023
101.013
101.004
100.993
100.983
100.972
100.96
100.948
100.936
100.924
100.912
100.9
100.888
100.878
100.868
100.859
100.853
100.848
100.845
100.844
100.845
100.849
100.855
100.864
100.875
100.889
100.904
100.922
100.941
100.962
100.983
101.006
101.03
101.053
101.077
101.101
101.124
101.146
101.167
101.187
101.206
101.223
101.239
101.253
101.265
101.276
101.284
101.291
101.297
101.301
101.303
101.304
101.304
101.302
101.299
101.296
101.292
101.287
101.281
101.275
101.268
101.261
101.253
101.246
101.237
101.229
101.22
101.211
101.202
101.192
101.183
101.173
101.162
101.152
101.141
101.13
101.119
101.108
101.097
101.085
101.074
101.062
101.05
101.039
101.027
101.015
101.004
100.993
100.982
100.971
100.961
100.951
100.941
100.932
100.923
100.915
100.908
100.901
100.895
100.89
100.885
100.881
100.878
100.876
100.874
100.873
100.873
100.874
100.876
100.878
100.881
100.884
100.888
100.892
100.897
100.902
100.907
100.912
100.918
100.923
100.928
100.933
100.938
100.943
100.947
100.951
100.954
100.957
100.959
100.96
100.96
100.96
100.959
100.958
100.955
100.952
100.948
100.943
100.937
100.93
100.923
100.915
100.906
100.896
100.886
100.875
100.863
100.851
100.838
100.824
100.811
100.796
100.782
100.766
100.751
100.735
100.72
100.704
100.688
100.671
100.656
100.64
100.624
100.609
100.594
100.58
100.566
100.553
100.541
100.529
100.519
100.509
100.5
100.493
100.487
100.481
100.477
100.474
100.472
100.471
100.472
100.473
100.475
100.478
100.482
100.487
100.492
100.498
100.504
100.51
100.517
100.524
100.531
100.538
100.544
100.551
100.557
100.563
100.569
100.574
100.579
100.584
100.588
100.592
100.595
100.598
100.6
100.602
100.604
100.605
100.606
100.606
101.481
101.482
101.482
101.482
101.482
101.481
101.48
101.479
101.477
101.475
101.471
101.467
101.461
101.454
101.446
101.437
101.426
101.414
101.401
101.387
101.372
101.356
101.339
101.321
101.303
101.285
101.267
101.248
101.23
101.212
101.195
101.178
101.162
101.147
101.132
101.119
101.106
101.093
101.082
101.071
101.061
101.051
101.041
101.032
101.022
101.013
101.003
100.993
100.983
100.972
100.962
100.95
100.939
100.928
100.916
100.905
100.895
100.885
100.876
100.869
100.863
100.859
100.856
100.856
100.857
100.861
100.868
100.876
100.887
100.9
100.915
100.932
100.95
100.97
100.991
101.013
101.035
101.058
101.081
101.104
101.126
101.147
101.168
101.188
101.206
101.223
101.238
101.252
101.264
101.274
101.283
101.29
101.296
101.3
101.302
101.304
101.304
101.302
101.3
101.297
101.293
101.288
101.283
101.277
101.271
101.264
101.256
101.249
101.241
101.232
101.223
101.215
101.205
101.196
101.186
101.176
101.166
101.156
101.145
101.134
101.123
101.112
101.101
101.089
101.078
101.066
101.054
101.043
101.031
101.019
101.007
100.996
100.984
100.973
100.962
100.951
100.941
100.931
100.922
100.913
100.905
100.898
100.891
100.885
100.88
100.876
100.872
100.869
100.867
100.866
100.866
100.866
100.867
100.869
100.872
100.875
100.878
100.882
100.886
100.89
100.895
100.9
100.905
100.909
100.914
100.918
100.922
100.926
100.929
100.932
100.934
100.936
100.937
100.937
100.937
100.936
100.934
100.932
100.928
100.924
100.92
100.914
100.908
100.901
100.894
100.886
100.877
100.867
100.857
100.847
100.836
100.824
100.812
100.799
100.786
100.773
100.759
100.745
100.731
100.717
100.702
100.688
100.673
100.659
100.644
100.63
100.616
100.603
100.589
100.577
100.565
100.553
100.542
100.533
100.524
100.516
100.508
100.502
100.497
100.494
100.491
100.489
100.488
100.489
100.49
100.493
100.496
100.5
100.505
100.511
100.517
100.523
100.53
100.538
100.545
100.553
100.56
100.568
100.575
100.582
100.589
100.596
100.602
100.608
100.614
100.619
100.623
100.627
100.631
100.634
100.637
100.639
100.641
100.642
100.643
100.643
101.473
101.473
101.473
101.473
101.473
101.473
101.472
101.471
101.469
101.467
101.463
101.459
101.453
101.446
101.439
101.43
101.419
101.408
101.395
101.381
101.366
101.35
101.334
101.317
101.299
101.281
101.263
101.245
101.227
101.21
101.193
101.176
101.16
101.145
101.131
101.117
101.104
101.092
101.08
101.07
101.059
101.049
101.04
101.031
101.021
101.012
101.003
100.993
100.984
100.974
100.963
100.953
100.943
100.932
100.922
100.912
100.903
100.895
100.887
100.88
100.875
100.872
100.87
100.87
100.872
100.876
100.882
100.891
100.901
100.913
100.927
100.943
100.961
100.98
101
101.02
101.042
101.064
101.085
101.107
101.128
101.149
101.169
101.188
101.205
101.222
101.237
101.25
101.262
101.272
101.281
101.289
101.294
101.299
101.301
101.303
101.304
101.303
101.301
101.298
101.295
101.29
101.285
101.28
101.274
101.267
101.26
101.252
101.244
101.236
101.228
101.219
101.21
101.2
101.191
101.181
101.171
101.161
101.15
101.139
101.129
101.117
101.106
101.095
101.083
101.071
101.059
101.047
101.035
101.023
101.011
100.999
100.987
100.975
100.963
100.952
100.941
100.931
100.921
100.911
100.902
100.894
100.887
100.88
100.875
100.87
100.865
100.862
100.86
100.858
100.857
100.857
100.858
100.859
100.861
100.863
100.866
100.869
100.872
100.876
100.88
100.884
100.888
100.891
100.895
100.898
100.901
100.904
100.906
100.908
100.909
100.91
100.91
100.909
100.908
100.907
100.904
100.901
100.897
100.893
100.888
100.882
100.876
100.869
100.862
100.854
100.845
100.836
100.826
100.816
100.806
100.795
100.784
100.772
100.76
100.748
100.736
100.723
100.71
100.697
100.684
100.671
100.658
100.645
100.632
100.62
100.607
100.596
100.584
100.573
100.563
100.553
100.544
100.536
100.529
100.522
100.517
100.513
100.509
100.507
100.506
100.506
100.506
100.508
100.511
100.515
100.519
100.525
100.531
100.537
100.545
100.552
100.56
100.568
100.577
100.585
100.594
100.602
100.61
100.618
100.626
100.633
100.64
100.647
100.653
100.658
100.663
100.668
100.672
100.676
100.679
100.681
100.683
100.684
100.685
100.686
101.463
101.464
101.464
101.464
101.464
101.463
101.463
101.461
101.46
101.457
101.454
101.45
101.444
101.438
101.43
101.421
101.411
101.4
101.387
101.374
101.359
101.344
101.328
101.311
101.294
101.276
101.259
101.241
101.224
101.207
101.19
101.174
101.158
101.143
101.129
101.115
101.102
101.09
101.079
101.068
101.058
101.048
101.039
101.029
101.02
101.011
101.002
100.993
100.984
100.975
100.966
100.957
100.947
100.938
100.929
100.921
100.913
100.906
100.899
100.894
100.89
100.887
100.886
100.887
100.889
100.893
100.899
100.907
100.917
100.929
100.942
100.957
100.973
100.991
101.01
101.029
101.05
101.07
101.091
101.111
101.131
101.151
101.17
101.188
101.205
101.221
101.235
101.248
101.26
101.27
101.279
101.287
101.293
101.297
101.3
101.303
101.303
101.303
101.302
101.3
101.296
101.292
101.288
101.283
101.277
101.27
101.263
101.256
101.249
101.241
101.232
101.224
101.215
101.205
101.196
101.186
101.177
101.166
101.156
101.145
101.134
101.123
101.112
101.1
101.089
101.077
101.064
101.052
101.039
101.027
101.014
101.001
100.989
100.976
100.964
100.952
100.941
100.93
100.919
100.909
100.9
100.891
100.883
100.876
100.869
100.864
100.859
100.855
100.852
100.849
100.848
100.847
100.846
100.847
100.848
100.849
100.851
100.853
100.856
100.858
100.861
100.864
100.866
100.869
100.872
100.874
100.876
100.877
100.879
100.879
100.88
100.88
100.879
100.878
100.876
100.874
100.871
100.867
100.863
100.859
100.854
100.848
100.842
100.835
100.828
100.82
100.812
100.804
100.795
100.785
100.776
100.766
100.755
100.745
100.734
100.723
100.712
100.7
100.689
100.677
100.665
100.654
100.642
100.631
100.62
100.609
100.599
100.589
100.579
100.57
100.561
100.553
100.546
100.54
100.535
100.53
100.527
100.524
100.522
100.522
100.522
100.524
100.526
100.529
100.534
100.539
100.545
100.551
100.559
100.567
100.575
100.584
100.593
100.602
100.612
100.621
100.631
100.64
100.649
100.658
100.667
100.675
100.683
100.69
100.697
100.703
100.708
100.714
100.718
100.722
100.725
100.728
100.73
100.732
100.733
100.733
101.452
101.453
101.453
101.453
101.453
101.452
101.452
101.451
101.449
101.447
101.443
101.439
101.434
101.428
101.42
101.412
101.402
101.391
101.379
101.366
101.352
101.337
101.321
101.305
101.288
101.271
101.254
101.237
101.22
101.203
101.186
101.171
101.155
101.14
101.126
101.113
101.1
101.088
101.077
101.066
101.056
101.047
101.037
101.028
101.019
101.011
101.002
100.994
100.985
100.977
100.969
100.961
100.953
100.945
100.937
100.93
100.924
100.918
100.913
100.909
100.906
100.904
100.904
100.905
100.908
100.912
100.918
100.926
100.935
100.946
100.959
100.972
100.988
101.004
101.021
101.039
101.058
101.077
101.097
101.116
101.135
101.153
101.171
101.188
101.204
101.22
101.234
101.246
101.258
101.268
101.277
101.284
101.291
101.296
101.299
101.302
101.303
101.303
101.302
101.301
101.298
101.295
101.29
101.286
101.28
101.274
101.268
101.261
101.253
101.246
101.237
101.229
101.22
101.211
101.202
101.193
101.183
101.173
101.163
101.152
101.141
101.13
101.118
101.107
101.095
101.082
101.07
101.057
101.044
101.031
101.017
101.004
100.991
100.978
100.965
100.953
100.941
100.929
100.918
100.907
100.897
100.888
100.879
100.871
100.864
100.857
100.852
100.847
100.843
100.84
100.837
100.835
100.834
100.833
100.833
100.833
100.833
100.834
100.835
100.837
100.838
100.84
100.841
100.843
100.844
100.845
100.846
100.846
100.847
100.847
100.846
100.846
100.844
100.843
100.841
100.838
100.835
100.831
100.827
100.823
100.818
100.812
100.807
100.8
100.794
100.786
100.779
100.771
100.763
100.754
100.746
100.737
100.727
100.718
100.708
100.698
100.688
100.678
100.668
100.658
100.648
100.638
100.628
100.618
100.609
100.6
100.591
100.583
100.575
100.568
100.561
100.555
100.55
100.546
100.542
100.539
100.538
100.537
100.537
100.538
100.541
100.544
100.548
100.553
100.559
100.566
100.573
100.581
100.59
100.599
100.609
100.619
100.629
100.64
100.65
100.661
100.672
100.682
100.692
100.702
100.711
100.72
100.729
100.737
100.744
100.751
100.758
100.763
100.768
100.773
100.777
100.78
100.782
100.784
100.785
100.786
101.44
101.441
101.441
101.441
101.441
101.44
101.44
101.439
101.437
101.435
101.432
101.428
101.423
101.417
101.41
101.401
101.392
101.381
101.37
101.357
101.344
101.329
101.314
101.298
101.282
101.265
101.249
101.232
101.215
101.199
101.183
101.167
101.152
101.138
101.124
101.111
101.098
101.086
101.075
101.064
101.054
101.045
101.036
101.027
101.018
101.01
101.002
100.994
100.987
100.98
100.972
100.965
100.959
100.952
100.947
100.941
100.936
100.932
100.928
100.926
100.924
100.924
100.924
100.926
100.929
100.933
100.939
100.946
100.955
100.965
100.977
100.989
101.003
101.018
101.034
101.05
101.068
101.085
101.103
101.121
101.138
101.156
101.172
101.188
101.204
101.218
101.232
101.244
101.255
101.265
101.274
101.282
101.288
101.294
101.298
101.301
101.302
101.303
101.303
101.302
101.3
101.297
101.293
101.289
101.284
101.278
101.272
101.265
101.259
101.251
101.243
101.235
101.227
101.218
101.209
101.2
101.19
101.18
101.17
101.159
101.148
101.137
101.125
101.113
101.101
101.088
101.075
101.062
101.048
101.034
101.021
101.007
100.993
100.98
100.966
100.953
100.941
100.928
100.917
100.905
100.895
100.884
100.875
100.866
100.858
100.851
100.845
100.839
100.834
100.829
100.825
100.822
100.819
100.817
100.815
100.814
100.813
100.812
100.812
100.812
100.812
100.812
100.812
100.812
100.812
100.812
100.812
100.812
100.812
100.811
100.81
100.809
100.807
100.805
100.803
100.8
100.797
100.794
100.79
100.786
100.781
100.776
100.771
100.765
100.759
100.753
100.746
100.739
100.732
100.725
100.717
100.709
100.701
100.692
100.684
100.675
100.666
100.658
100.649
100.64
100.632
100.624
100.615
100.607
100.6
100.592
100.586
100.579
100.573
100.568
100.563
100.559
100.556
100.554
100.552
100.552
100.552
100.553
100.555
100.558
100.562
100.567
100.573
100.58
100.587
100.596
100.605
100.614
100.624
100.635
100.646
100.658
100.669
100.681
100.693
100.704
100.716
100.728
100.739
100.749
100.76
100.77
100.779
100.788
100.796
100.804
100.811
100.817
100.823
100.828
100.832
100.836
100.838
100.84
100.842
100.842
101.427
101.428
101.428
101.428
101.428
101.427
101.427
101.426
101.424
101.422
101.419
101.415
101.411
101.405
101.398
101.39
101.381
101.371
101.36
101.348
101.335
101.321
101.306
101.291
101.275
101.259
101.243
101.227
101.21
101.194
101.179
101.164
101.149
101.135
101.121
101.108
101.096
101.084
101.073
101.062
101.052
101.043
101.034
101.026
101.018
101.01
101.003
100.996
100.989
100.983
100.977
100.971
100.966
100.961
100.957
100.953
100.95
100.947
100.945
100.944
100.944
100.944
100.946
100.948
100.951
100.956
100.962
100.968
100.977
100.986
100.996
101.007
101.02
101.033
101.047
101.062
101.078
101.094
101.11
101.126
101.142
101.158
101.174
101.189
101.203
101.217
101.23
101.242
101.253
101.263
101.271
101.279
101.286
101.291
101.296
101.299
101.302
101.303
101.303
101.302
101.301
101.299
101.296
101.292
101.287
101.282
101.277
101.271
101.264
101.257
101.25
101.242
101.234
101.226
101.217
101.208
101.198
101.188
101.178
101.167
101.156
101.144
101.132
101.12
101.107
101.094
101.08
101.066
101.052
101.038
101.024
101.01
100.996
100.982
100.968
100.954
100.941
100.928
100.916
100.904
100.892
100.882
100.871
100.862
100.853
100.844
100.837
100.83
100.823
100.817
100.812
100.807
100.803
100.799
100.795
100.792
100.79
100.787
100.785
100.784
100.782
100.781
100.78
100.779
100.778
100.777
100.776
100.775
100.774
100.773
100.772
100.77
100.768
100.766
100.764
100.762
100.759
100.756
100.753
100.749
100.745
100.741
100.736
100.731
100.726
100.721
100.715
100.709
100.703
100.696
100.69
100.683
100.676
100.669
100.662
100.655
100.647
100.64
100.633
100.626
100.619
100.613
100.606
100.6
100.594
100.589
100.584
100.579
100.576
100.572
100.57
100.568
100.567
100.566
100.567
100.568
100.57
100.574
100.578
100.583
100.588
100.595
100.603
100.611
100.62
100.63
100.641
100.652
100.663
100.675
100.688
100.7
100.713
100.726
100.739
100.752
100.764
100.777
100.789
100.801
100.812
100.823
100.833
100.843
100.852
100.86
100.868
100.874
100.881
100.886
100.891
100.894
100.897
100.9
100.901
100.902
101.414
101.414
101.414
101.414
101.414
101.414
101.413
101.412
101.411
101.409
101.406
101.402
101.398
101.392
101.386
101.378
101.369
101.36
101.349
101.337
101.325
101.311
101.297
101.283
101.268
101.252
101.236
101.221
101.205
101.19
101.174
101.16
101.145
101.131
101.118
101.105
101.093
101.081
101.071
101.06
101.05
101.041
101.033
101.025
101.017
101.01
101.003
100.997
100.991
100.986
100.982
100.978
100.974
100.971
100.968
100.966
100.965
100.964
100.964
100.964
100.965
100.966
100.969
100.972
100.975
100.98
100.986
100.992
100.999
101.007
101.017
101.027
101.038
101.049
101.062
101.075
101.089
101.103
101.117
101.132
101.146
101.161
101.175
101.189
101.202
101.215
101.227
101.239
101.25
101.259
101.268
101.276
101.283
101.289
101.294
101.297
101.3
101.302
101.303
101.303
101.302
101.301
101.298
101.295
101.291
101.287
101.282
101.276
101.27
101.264
101.257
101.25
101.242
101.234
101.225
101.216
101.206
101.196
101.186
101.175
101.163
101.151
101.139
101.126
101.113
101.099
101.085
101.071
101.057
101.042
101.027
101.013
100.998
100.984
100.97
100.955
100.942
100.928
100.915
100.903
100.89
100.879
100.868
100.857
100.847
100.837
100.828
100.819
100.811
100.804
100.796
100.79
100.784
100.778
100.773
100.768
100.764
100.76
100.757
100.753
100.751
100.748
100.746
100.744
100.742
100.74
100.738
100.737
100.735
100.734
100.732
100.731
100.729
100.727
100.725
100.723
100.721
100.718
100.716
100.713
100.71
100.706
100.703
100.699
100.695
100.69
100.686
100.681
100.676
100.671
100.665
100.66
100.655
100.649
100.643
100.638
100.632
100.627
100.621
100.616
100.611
100.606
100.602
100.597
100.593
100.59
100.587
100.585
100.583
100.582
100.581
100.581
100.582
100.584
100.587
100.59
100.594
100.599
100.605
100.612
100.619
100.628
100.637
100.647
100.658
100.669
100.681
100.693
100.706
100.719
100.733
100.746
100.76
100.774
100.788
100.802
100.816
100.829
100.842
100.854
100.866
100.878
100.889
100.899
100.909
100.918
100.926
100.934
100.94
100.946
100.951
100.955
100.959
100.961
100.962
100.963
101.399
101.399
101.399
101.399
101.399
101.399
101.399
101.398
101.396
101.394
101.392
101.388
101.384
101.379
101.373
101.365
101.357
101.348
101.338
101.327
101.315
101.302
101.288
101.274
101.26
101.245
101.23
101.215
101.199
101.184
101.17
101.155
101.141
101.128
101.115
101.102
101.09
101.079
101.068
101.058
101.048
101.04
101.031
101.024
101.017
101.01
101.004
100.999
100.995
100.991
100.988
100.985
100.983
100.981
100.981
100.98
100.981
100.982
100.983
100.985
100.987
100.99
100.993
100.996
101.001
101.005
101.011
101.016
101.023
101.03
101.038
101.047
101.056
101.066
101.077
101.088
101.1
101.112
101.125
101.138
101.15
101.163
101.176
101.189
101.201
101.213
101.225
101.236
101.246
101.256
101.265
101.273
101.28
101.286
101.291
101.295
101.299
101.301
101.303
101.303
101.303
101.302
101.301
101.298
101.295
101.291
101.287
101.282
101.277
101.271
101.264
101.257
101.25
101.242
101.233
101.224
101.214
101.204
101.193
101.182
101.17
101.158
101.145
101.132
101.118
101.104
101.09
101.076
101.061
101.046
101.031
101.016
101.001
100.986
100.972
100.957
100.943
100.929
100.915
100.901
100.888
100.875
100.863
100.851
100.839
100.828
100.818
100.807
100.798
100.788
100.779
100.771
100.763
100.756
100.749
100.742
100.736
100.731
100.726
100.721
100.717
100.714
100.71
100.707
100.704
100.702
100.7
100.698
100.696
100.694
100.693
100.691
100.69
100.688
100.687
100.685
100.684
100.682
100.68
100.678
100.676
100.673
100.671
100.668
100.665
100.662
100.659
100.655
100.652
100.648
100.644
100.641
100.637
100.633
100.629
100.625
100.621
100.618
100.614
100.611
100.608
100.605
100.602
100.6
100.598
100.597
100.596
100.596
100.596
100.597
100.599
100.601
100.604
100.608
100.612
100.617
100.624
100.63
100.638
100.647
100.656
100.666
100.676
100.688
100.7
100.712
100.725
100.739
100.753
100.767
100.781
100.796
100.811
100.825
100.84
100.854
100.869
100.883
100.896
100.909
100.922
100.934
100.946
100.957
100.967
100.976
100.985
100.993
101
101.006
101.011
101.016
101.019
101.022
101.023
101.024
101.384
101.384
101.384
101.384
101.384
101.384
101.384
101.383
101.382
101.38
101.377
101.374
101.37
101.365
101.359
101.352
101.344
101.336
101.326
101.315
101.304
101.292
101.279
101.265
101.251
101.237
101.223
101.208
101.193
101.179
101.165
101.151
101.137
101.124
101.111
101.099
101.087
101.076
101.065
101.056
101.046
101.038
101.03
101.023
101.016
101.011
101.006
101.002
100.999
100.996
100.994
100.993
100.993
100.993
100.994
100.996
100.998
101
101.003
101.006
101.01
101.014
101.018
101.022
101.026
101.031
101.036
101.042
101.048
101.054
101.06
101.068
101.075
101.084
101.092
101.102
101.112
101.122
101.133
101.144
101.155
101.166
101.178
101.189
101.201
101.212
101.222
101.233
101.243
101.252
101.261
101.269
101.276
101.283
101.288
101.293
101.297
101.3
101.302
101.304
101.304
101.304
101.303
101.302
101.299
101.296
101.293
101.288
101.284
101.278
101.272
101.265
101.258
101.25
101.241
101.232
101.222
101.212
101.201
101.189
101.177
101.165
101.152
101.138
101.124
101.11
101.095
101.08
101.065
101.05
101.035
101.02
101.004
100.989
100.974
100.959
100.944
100.929
100.914
100.899
100.885
100.871
100.857
100.844
100.831
100.818
100.806
100.794
100.782
100.771
100.76
100.75
100.741
100.732
100.723
100.715
100.708
100.701
100.694
100.689
100.683
100.679
100.674
100.67
100.667
100.664
100.662
100.659
100.657
100.656
100.654
100.653
100.652
100.651
100.65
100.649
100.648
100.647
100.646
100.645
100.644
100.643
100.641
100.64
100.639
100.637
100.635
100.633
100.632
100.63
100.628
100.626
100.624
100.622
100.62
100.618
100.616
100.614
100.613
100.611
100.61
100.61
100.609
100.609
100.61
100.61
100.612
100.613
100.616
100.619
100.622
100.627
100.632
100.637
100.644
100.651
100.658
100.667
100.676
100.686
100.697
100.708
100.72
100.732
100.745
100.759
100.772
100.787
100.801
100.816
100.831
100.847
100.862
100.877
100.892
100.907
100.922
100.936
100.95
100.964
100.977
100.989
101.001
101.013
101.023
101.033
101.042
101.05
101.057
101.064
101.069
101.074
101.077
101.08
101.082
101.082
101.369
101.369
101.369
101.369
101.369
101.369
101.368
101.368
101.366
101.365
101.362
101.359
101.355
101.351
101.345
101.339
101.331
101.323
101.314
101.304
101.293
101.281
101.269
101.256
101.243
101.229
101.215
101.201
101.187
101.173
101.159
101.146
101.132
101.119
101.107
101.095
101.084
101.073
101.063
101.053
101.044
101.036
101.029
101.022
101.017
101.012
101.008
101.005
101.003
101.002
101.002
101.002
101.004
101.006
101.008
101.012
101.016
101.02
101.024
101.029
101.034
101.038
101.043
101.048
101.053
101.058
101.063
101.068
101.073
101.078
101.083
101.089
101.095
101.102
101.108
101.116
101.124
101.132
101.141
101.15
101.16
101.169
101.179
101.189
101.2
101.21
101.22
101.23