# vtk DataFile Version 2.0
HPC Tutorials: Michael Bader, Kaveh Rahnema, Oliver Meister
ASCII
DATASET RECTILINEAR_GRID
DIMENSIONS 257 257 1
X_COORDINATES 257 float
0
0.005
0.01
0.015
0.02
0.025
0.03
0.035
0.04
0.045
0.05
0.055
0.06
0.065
0.07
0.075
0.08
0.085
0.09
0.095
0.1
0.105
0.11
0.115
0.12
0.125
0.13
0.135
0.14
0.145
0.15
0.155
0.16
0.165
0.17
0.175
0.18
0.185
0.19
0.195
0.2
0.205
0.21
0.215
0.22
0.225
0.23
0.235
0.24
0.245
0.25
0.255
0.26
0.265
0.27
0.275
0.28
0.285
0.29
0.295
0.3
0.305
0.31
0.315
0.32
0.325
0.33
0.335
0.34
0.345
0.35
0.355
0.36
0.365
0.37
0.375
0.38
0.385
0.39
0.395
0.4
0.405
0.41
0.415
0.42
0.425
0.43
0.435
0.44
0.445
0.45
0.455
0.46
0.465
0.47
0.475
0.48
0.485
0.49
0.495
0.5
0.505
0.51
0.515
0.52
0.525
0.53
0.535
0.54
0.545
0.55
0.555
0.56
0.565
0.57
0.575
0.58
0.585
0.59
0.595
0.6
0.605
0.61
0.615
0.62
0.625
0.63
0.635
0.64
0.645
0.65
0.655
0.66
0.665
0.67
0.675
0.68
0.685
0.69
0.695
0.7
0.705
0.71
0.715
0.72
0.725
0.73
0.735
0.74
0.745
0.75
0.755
0.76
0.765
0.77
0.775
0.78
0.785
0.79
0.795
0.8
0.805
0.81
0.815
0.82
0.825
0.83
0.835
0.84
0.845
0.85
0.855
0.86
0.865
0.87
0.875
0.88
0.885
0.89
0.895
0.9
0.905
0.91
0.915
0.92
0.925
0.93
0.935
0.94
0.945
0.95
0.955
0.96
0.965
0.97
0.975
0.98
0.985
0.99
0.995
1
1.005
1.01
1.015
1.02
1.025
1.03
1.035
1.04
1.045
1.05
1.055
1.06
1.065
1.07
1.075
1.08
1.085
1.09
1.095
1.1
1.105
1.11
1.115
1.12
1.125
1.13
1.135
1.14
1.145
1.15
1.155
1.16
1.165
1.17
1.175
1.18
1.185
1.19
1.195
1.2
1.205
1.21
1.215
1.22
1.225
1.23
1.235
1.24
1.245
1.25
1.255
1.26
1.265
1.27
1.275
1.28
Y_COORDINATES 257 float
0
0.005
0.01
0.015
0.02
0.025
0.03
0.035
0.04
0.045
0.05
0.055
0.06
0.065
0.07
0.075
0.08
0.085
0.09
0.095
0.1
0.105
0.11
0.115
0.12
0.125
0.13
0.135
0.14
0.145
0.15
0.155
0.16
0.165
0.17
0.175
0.18
0.185
0.19
0.195
0.2
0.205
0.21
0.215
0.22
0.225
0.23
0.235
0.24
0.245
0.25
0.255
0.26
0.265
0.27
0.275
0.28
0.285
0.29
0.295
0.3
0.305
0.31
0.315
0.32
0.325
0.33
0.335
0.34
0.345
0.35
0.355
0.36
0.365
0.37
0.375
0.38
0.385
0.39
0.395
0.4
0.405
0.41
0.415
0.42
0.425
0.43
0.435
0.44
0.445
0.45
0.455
0.46
0.465
0.47
0.475
0.48
0.485
0.49
0.495
0.5
0.505
0.51
0.515
0.52
0.525
0.53
0.535
0.54
0.545
0.55
0.555
0.56
0.565
0.57
0.575
0.58
0.585
0.59
0.595
0.6
0.605
0.61
0.615
0.62
0.625
0.63
0.635
0.64
0.645
0.65
0.655
0.66
0.665
0.67
0.675
0.68
0.685
0.69
0.695
0.7
0.705
0.71
0.715
0.72
0.725
0.73
0.735
0.74
0.745
0.75
0.755
0.76
0.765
0.77
0.775
0.78
0.785
0.79
0.795
0.8
0.805
0.81
0.815
0.82
0.825
0.83
0.835
0.84
0.845
0.85
0.855
0.86
0.865
0.87
0.875
0.88
0.885
0.89
0.895
0.9
0.905
0.91
0.915
0.92
0.925
0.93
0.935
0.94
0.945
0.95
0.955
0.96
0.965
0.97
0.975
0.98
0.985
0.99
0.995
1
1.005
1.01
1.015
1.02
1.025
1.03
1.035
1.04
1.045
1.05
1.055
1.06
1.065
1.07
1.075
1.08
1.085
1.09
1.095
1.1
1.105
1.11
1.115
1.12
1.125
1.13
1.135
1.14
1.145
1.15
1.155
1.16
1.165
1.17
1.175
1.18
1.185
1.19
1.195
1.2
1.205
1.21
1.215
1.22
1.225
1.23
1.235
1.24
1.245
1.25
1.255
1.26
1.265
1.27
1.275
1.28
Z_COORDINATES 1 float
0
CELL_DATA 65536
SCALARS H float 1
LOOKUP_TABLE default
2.99755
2.99754
2.99753
2.99751
2.9975
2.99748
2.99748
2.99748
2.99749
2.99751
2.99752
2.99753
2.99752
2.99751
2.99747
2.99742
2.99736
2.99728
2.9972
2.99712
2.99705
2.997
2.99696
2.99695
2.99696
2.99698
2.99703
2.99708
2.99714
2.99721
2.99727
2.99732
2.99737
2.9974
2.99743
2.99744
2.99745
2.99744
2.99743
2.99741
2.99738
2.99734
2.9973
2.99726
2.99722
2.99718
2.99713
2.99709
2.99705
2.99701
2.99697
2.99693
2.99689
2.99684
2.9968
2.99676
2.99673
2.99671
2.99671
2.99672
2.99675
2.99679
2.99685
2.99691
2.99698
2.99704
2.99711
2.99717
2.99723
2.99728
2.99733
2.99738
2.99742
2.99746
2.99749
2.99751
2.99753
2.99754
2.99754
2.99753
2.99752
2.9975
2.99749
2.99748
2.99748
2.99751
2.99757
2.99766
2.99779
2.99798
2.99821
2.99851
2.99888
2.99931
2.99982
3.0004
3.00103
3.00173
3.00247
3.00323
3.00399
3.00474
3.00543
3.00605
3.00657
3.00695
3.00718
3.00724
3.00713
3.00684
3.00639
3.00577
3.00502
3.00415
3.0032
3.00218
3.00113
3.00006
2.999
2.99796
2.99695
2.99599
2.99508
2.99422
2.99342
2.99268
2.992
2.9914
2.99089
2.99046
2.99012
2.98988
2.98975
2.98972
2.98977
2.98992
2.99013
2.9904
2.99071
2.99105
2.99142
2.99182
2.99224
2.99271
2.99323
2.99381
2.99445
2.99513
2.99583
2.99652
2.99715
2.99769
2.99811
2.99839
2.99854
2.99859
2.99856
2.99848
2.99839
2.9983
2.99819
2.99807
2.99792
2.99772
2.99749
2.99723
2.99696
2.9967
2.99648
2.9963
2.99618
2.9961
2.99607
2.99608
2.99611
2.99616
2.99623
2.9963
2.99637
2.99643
2.99648
2.99652
2.99654
2.99656
2.99657
2.99657
2.99658
2.99659
2.9966
2.99662
2.99663
2.99664
2.99666
2.99667
2.99669
2.99672
2.99676
2.99682
2.99689
2.99698
2.99707
2.99717
2.99727
2.99737
2.99745
2.99753
2.99759
2.99763
2.99767
2.99769
2.9977
2.99771
2.99771
2.9977
2.99769
2.99768
2.99767
2.99765
2.99763
2.99762
2.9976
2.99759
2.99757
2.99756
2.99755
2.99754
2.99753
2.99752
2.99752
2.99751
2.99751
2.99751
2.99752
2.99752
2.99752
2.99753
2.99753
2.99753
2.99753
2.99753
2.99753
2.99753
2.99752
2.99751
2.9975
2.99749
2.99748
2.99746
2.99745
2.99743
2.99742
2.99741
2.9974
2.99739
2.99739
2.99738
2.99754
2.99753
2.99752
2.9975
2.99749
2.99748
2.99748
2.99748
2.99749
2.9975
2.99751
2.99751
2.99751
2.99749
2.99745
2.9974
2.99734
2.99727
2.99719
2.99712
2.99706
2.99701
2.99698
2.99697
2.99698
2.99701
2.99705
2.9971
2.99716
2.99721
2.99727
2.99732
2.99737
2.9974
2.99742
2.99744
2.99744
2.99744
2.99742
2.9974
2.99737
2.99733
2.99729
2.99725
2.99721
2.99716
2.99712
2.99708
2.99704
2.99701
2.99697
2.99693
2.99689
2.99685
2.99681
2.99678
2.99675
2.99673
2.99673
2.99674
2.99677
2.99681
2.99686
2.99692
2.99698
2.99705
2.99711
2.99717
2.99723
2.99728
2.99733
2.99737
2.99741
2.99745
2.99748
2.9975
2.99752
2.99753
2.99753
2.99752
2.99751
2.9975
2.99749
2.99749
2.99751
2.99754
2.99761
2.99771
2.99785
2.99805
2.9983
2.9986
2.99897
2.99941
2.99992
3.00049
3.00112
3.0018
3.00252
3.00325
3.00399
3.0047
3.00536
3.00593
3.00641
3.00676
3.00696
3.00701
3.00689
3.0066
3.00615
3.00556
3.00483
3.004
3.00308
3.0021
3.00108
3.00005
2.99901
2.998
2.99701
2.99606
2.99516
2.9943
2.99351
2.99278
2.99211
2.99153
2.99102
2.9906
2.99027
2.99004
2.9899
2.98986
2.9899
2.99003
2.99021
2.99045
2.99074
2.99105
2.9914
2.99178
2.9922
2.99267
2.99319
2.99377
2.99441
2.9951
2.99581
2.9965
2.99714
2.99768
2.9981
2.99838
2.99853
2.99858
2.99854
2.99847
2.99837
2.99828
2.99817
2.99805
2.9979
2.99771
2.99749
2.99723
2.99697
2.99672
2.9965
2.99632
2.99619
2.99612
2.99608
2.99608
2.99611
2.99616
2.99622
2.99629
2.99636
2.99642
2.99646
2.9965
2.99653
2.99655
2.99656
2.99656
2.99657
2.99658
2.9966
2.99661
2.99663
2.99665
2.99666
2.99668
2.99671
2.99675
2.99679
2.99685
2.99693
2.99701
2.9971
2.99719
2.99729
2.99737
2.99745
2.99752
2.99757
2.99761
2.99765
2.99767
2.99768
2.99769
2.99769
2.99769
2.99768
2.99767
2.99766
2.99764
2.99763
2.99761
2.9976
2.99758
2.99757
2.99756
2.99754
2.99753
2.99752
2.99752
2.99751
2.99751
2.99751
2.99751
2.99751
2.99751
2.99752
2.99752
2.99752
2.99753
2.99753
2.99753
2.99753
2.99752
2.99752
2.99751
2.9975
2.99749
2.99747
2.99746
2.99744
2.99743
2.99742
2.9974
2.99739
2.99739
2.99738
2.99738
2.99753
2.99752
2.99751
2.9975
2.99749
2.99748
2.99747
2.99747
2.99748
2.99748
2.99748
2.99748
2.99747
2.99745
2.99742
2.99737
2.99732
2.99726
2.99719
2.99713
2.99708
2.99704
2.99701
2.99701
2.99702
2.99704
2.99708
2.99712
2.99717
2.99722
2.99727
2.99732
2.99736
2.99739
2.99742
2.99743
2.99743
2.99743
2.99741
2.99739
2.99736
2.99732
2.99728
2.99723
2.99719
2.99714
2.9971
2.99707
2.99703
2.997
2.99697
2.99694
2.9969
2.99687
2.99683
2.9968
2.99678
2.99676
2.99676
2.99677
2.99679
2.99683
2.99687
2.99693
2.99699
2.99705
2.99711
2.99716
2.99722
2.99727
2.99731
2.99736
2.9974
2.99743
2.99746
2.99748
2.9975
2.99751
2.99752
2.99752
2.99751
2.99751
2.99751
2.99752
2.99755
2.9976
2.99768
2.9978
2.99796
2.99817
2.99843
2.99875
2.99913
2.99957
3.00007
3.00063
3.00124
3.0019
3.00258
3.00328
3.00396
3.00461
3.00521
3.00572
3.00614
3.00644
3.0066
3.00662
3.00649
3.00621
3.00579
3.00523
3.00455
3.00377
3.00291
3.00199
3.00102
3.00004
2.99904
2.99806
2.9971
2.99617
2.99528
2.99445
2.99367
2.99295
2.9923
2.99173
2.99123
2.99083
2.99051
2.99028
2.99014
2.99008
2.9901
2.99018
2.99033
2.99053
2.99077
2.99105
2.99137
2.99173
2.99213
2.99259
2.99312
2.99371
2.99436
2.99505
2.99577
2.99647
2.99712
2.99766
2.99809
2.99837
2.99852
2.99856
2.99853
2.99845
2.99835
2.99825
2.99814
2.99802
2.99788
2.9977
2.99748
2.99724
2.99698
2.99674
2.99653
2.99635
2.99622
2.99614
2.9961
2.99609
2.99611
2.99615
2.99621
2.99627
2.99633
2.99639
2.99644
2.99648
2.9965
2.99652
2.99654
2.99655
2.99656
2.99658
2.99659
2.99661
2.99663
2.99665
2.99668
2.9967
2.99674
2.99678
2.99684
2.9969
2.99698
2.99706
2.99714
2.99722
2.9973
2.99737
2.99744
2.99749
2.99754
2.99758
2.99761
2.99763
2.99765
2.99766
2.99766
2.99766
2.99766
2.99765
2.99764
2.99763
2.99762
2.9976
2.99759
2.99758
2.99756
2.99755
2.99754
2.99753
2.99752
2.99751
2.99751
2.9975
2.9975
2.9975
2.9975
2.99751
2.99751
2.99751
2.99752
2.99752
2.99752
2.99752
2.99752
2.99752
2.99751
2.9975
2.99749
2.99748
2.99747
2.99745
2.99744
2.99742
2.99741
2.9974
2.99739
2.99738
2.99737
2.99737
2.99751
2.9975
2.9975
2.99749
2.99748
2.99747
2.99746
2.99746
2.99746
2.99745
2.99745
2.99744
2.99743
2.99741
2.99738
2.99734
2.99729
2.99724
2.99719
2.99714
2.9971
2.99707
2.99706
2.99705
2.99706
2.99708
2.99711
2.99715
2.99719
2.99724
2.99728
2.99732
2.99735
2.99738
2.9974
2.99742
2.99742
2.99741
2.9974
2.99737
2.99734
2.9973
2.99725
2.99721
2.99716
2.99712
2.99708
2.99705
2.99702
2.99699
2.99697
2.99694
2.99692
2.99689
2.99686
2.99684
2.99682
2.9968
2.9968
2.99681
2.99683
2.99686
2.9969
2.99694
2.997
2.99705
2.9971
2.99716
2.99721
2.99725
2.9973
2.99734
2.99737
2.99741
2.99744
2.99746
2.99748
2.99749
2.9975
2.9975
2.99751
2.99752
2.99753
2.99756
2.99761
2.99768
2.99779
2.99793
2.99811
2.99834
2.99862
2.99895
2.99934
2.99978
3.00028
3.00082
3.00141
3.00203
3.00266
3.00329
3.00391
3.00448
3.00499
3.00542
3.00576
3.00599
3.00611
3.00609
3.00595
3.00568
3.00529
3.00478
3.00416
3.00346
3.00267
3.00182
3.00093
3.00001
2.99908
2.99814
2.99722
2.99632
2.99546
2.99465
2.99389
2.99319
2.99257
2.99202
2.99155
2.99116
2.99085
2.99062
2.99047
2.99038
2.99037
2.9904
2.9905
2.99064
2.99082
2.99105
2.99133
2.99166
2.99205
2.9925
2.99303
2.99362
2.99429
2.99499
2.99572
2.99643
2.99708
2.99763
2.99806
2.99835
2.9985
2.99854
2.9985
2.99842
2.99831
2.99821
2.9981
2.99799
2.99785
2.99768
2.99748
2.99725
2.99701
2.99677
2.99657
2.99639
2.99626
2.99617
2.99612
2.9961
2.99611
2.99614
2.99619
2.99624
2.9963
2.99635
2.9964
2.99644
2.99647
2.9965
2.99651
2.99653
2.99655
2.99656
2.99658
2.99661
2.99663
2.99666
2.99669
2.99673
2.99678
2.99684
2.9969
2.99697
2.99704
2.99712
2.99719
2.99725
2.99732
2.99737
2.99742
2.99747
2.99751
2.99754
2.99757
2.99759
2.99761
2.99762
2.99763
2.99763
2.99763
2.99763
2.99762
2.99761
2.9976
2.99759
2.99758
2.99756
2.99755
2.99754
2.99753
2.99752
2.99751
2.9975
2.9975
2.99749
2.99749
2.99749
2.99749
2.9975
2.9975
2.9975
2.99751
2.99751
2.99751
2.99751
2.99751
2.9975
2.9975
2.99749
2.99748
2.99747
2.99745
2.99744
2.99742
2.99741
2.9974
2.99738
2.99737
2.99737
2.99736
2.99736
2.9975
2.99749
2.99749
2.99748
2.99747
2.99746
2.99745
2.99744
2.99743
2.99742
2.99741
2.9974
2.99738
2.99736
2.99733
2.9973
2.99727
2.99723
2.99719
2.99716
2.99713
2.99712
2.99711
2.99711
2.99712
2.99713
2.99716
2.99719
2.99722
2.99725
2.99729
2.99732
2.99735
2.99737
2.99739
2.9974
2.9974
2.99739
2.99738
2.99735
2.99731
2.99727
2.99723
2.99718
2.99713
2.99709
2.99705
2.99702
2.997
2.99698
2.99697
2.99695
2.99694
2.99692
2.9969
2.99688
2.99687
2.99685
2.99685
2.99686
2.99687
2.99689
2.99693
2.99697
2.99701
2.99705
2.9971
2.99715
2.99719
2.99724
2.99728
2.99731
2.99735
2.99738
2.99741
2.99743
2.99745
2.99747
2.99748
2.9975
2.99751
2.99754
2.99757
2.99762
2.9977
2.9978
2.99793
2.9981
2.99831
2.99857
2.99887
2.99921
2.99961
3.00005
3.00053
3.00106
3.00161
3.00217
3.00274
3.00329
3.00381
3.00429
3.0047
3.00503
3.00528
3.00544
3.00549
3.00544
3.00529
3.00503
3.00467
3.00422
3.00368
3.00306
3.00237
3.00161
3.00081
2.99997
2.99911
2.99824
2.99737
2.99651
2.99569
2.99491
2.99418
2.99352
2.99292
2.99239
2.99195
2.99157
2.99127
2.99104
2.99087
2.99075
2.99069
2.99067
2.9907
2.99077
2.99089
2.99107
2.9913
2.99159
2.99196
2.9924
2.99293
2.99353
2.9942
2.99492
2.99565
2.99637
2.99703
2.99759
2.99802
2.99831
2.99847
2.99851
2.99847
2.99838
2.99827
2.99817
2.99806
2.99795
2.99782
2.99766
2.99747
2.99726
2.99703
2.99681
2.99661
2.99644
2.99631
2.99621
2.99615
2.99612
2.99611
2.99613
2.99617
2.99621
2.99626
2.99631
2.99636
2.9964
2.99643
2.99646
2.99648
2.99651
2.99653
2.99655
2.99657
2.9966
2.99664
2.99667
2.99672
2.99677
2.99684
2.9969
2.99698
2.99705
2.99712
2.99718
2.99724
2.99729
2.99733
2.99737
2.99741
2.99744
2.99747
2.99749
2.99752
2.99754
2.99756
2.99757
2.99758
2.99759
2.99759
2.99759
2.99759
2.99758
2.99758
2.99757
2.99756
2.99755
2.99754
2.99752
2.99751
2.9975
2.9975
2.99749
2.99748
2.99748
2.99748
2.99748
2.99748
2.99748
2.99749
2.99749
2.99749
2.99749
2.99749
2.99749
2.99749
2.99749
2.99748
2.99747
2.99746
2.99745
2.99744
2.99742
2.99741
2.99739
2.99738
2.99737
2.99736
2.99735
2.99734
2.99734
2.99748
2.99748
2.99748
2.99747
2.99746
2.99745
2.99743
2.99741
2.9974
2.99738
2.99736
2.99734
2.99733
2.99731
2.99728
2.99726
2.99724
2.99722
2.9972
2.99718
2.99717
2.99716
2.99716
2.99716
2.99717
2.99719
2.9972
2.99722
2.99725
2.99727
2.9973
2.99732
2.99735
2.99736
2.99738
2.99738
2.99738
2.99737
2.99735
2.99732
2.99728
2.99724
2.99719
2.99714
2.9971
2.99706
2.99703
2.997
2.99698
2.99697
2.99697
2.99696
2.99696
2.99695
2.99694
2.99693
2.99692
2.99691
2.99691
2.99691
2.99692
2.99694
2.99696
2.99699
2.99702
2.99706
2.9971
2.99714
2.99718
2.99722
2.99725
2.99728
2.99732
2.99734
2.99737
2.9974
2.99742
2.99744
2.99746
2.99749
2.99753
2.99757
2.99763
2.99771
2.99781
2.99794
2.99811
2.99831
2.99855
2.99883
2.99916
2.99952
2.99992
3.00036
3.00082
3.00131
3.00182
3.00232
3.0028
3.00326
3.00368
3.00404
3.00434
3.00456
3.00471
3.00478
3.00478
3.00469
3.00453
3.00429
3.00397
3.00358
3.00312
3.00259
3.002
3.00135
3.00065
2.9999
2.99912
2.99833
2.99753
2.99673
2.99596
2.99522
2.99454
2.99391
2.99335
2.99285
2.99243
2.99207
2.99177
2.99153
2.99133
2.99118
2.99106
2.99098
2.99094
2.99094
2.99099
2.9911
2.99128
2.99154
2.99188
2.9923
2.99282
2.99342
2.9941
2.99482
2.99557
2.9963
2.99696
2.99752
2.99796
2.99826
2.99842
2.99846
2.99842
2.99834
2.99823
2.99812
2.99802
2.99791
2.99778
2.99763
2.99746
2.99726
2.99705
2.99685
2.99666
2.99649
2.99635
2.99625
2.99618
2.99613
2.99612
2.99612
2.99614
2.99618
2.99622
2.99627
2.99631
2.99635
2.99638
2.99642
2.99645
2.99648
2.9965
2.99653
2.99657
2.9966
2.99665
2.9967
2.99676
2.99682
2.9969
2.99698
2.99705
2.99713
2.99719
2.99725
2.99729
2.99732
2.99735
2.99737
2.99739
2.99741
2.99743
2.99745
2.99747
2.99748
2.9975
2.99751
2.99753
2.99754
2.99754
2.99755
2.99755
2.99755
2.99755
2.99754
2.99753
2.99752
2.99751
2.99751
2.9975
2.99749
2.99748
2.99747
2.99747
2.99746
2.99746
2.99746
2.99746
2.99746
2.99747
2.99747
2.99747
2.99747
2.99748
2.99748
2.99747
2.99747
2.99746
2.99745
2.99744
2.99743
2.99742
2.9974
2.99739
2.99737
2.99736
2.99735
2.99734
2.99733
2.99733
2.99732
2.99748
2.99748
2.99747
2.99746
2.99745
2.99743
2.99741
2.99739
2.99736
2.99734
2.99731
2.99729
2.99727
2.99726
2.99724
2.99723
2.99722
2.99721
2.99721
2.9972
2.9972
2.99721
2.99721
2.99722
2.99723
2.99724
2.99725
2.99727
2.99728
2.9973
2.99731
2.99733
2.99734
2.99735
2.99736
2.99736
2.99736
2.99734
2.99732
2.99729
2.99725
2.9972
2.99716
2.99711
2.99707
2.99703
2.997
2.99698
2.99697
2.99697
2.99697
2.99698
2.99699
2.99699
2.99699
2.99699
2.99698
2.99698
2.99697
2.99697
2.99697
2.99698
2.997
2.99702
2.99704
2.99707
2.9971
2.99713
2.99716
2.99719
2.99722
2.99725
2.99728
2.99731
2.99733
2.99736
2.99739
2.99742
2.99745
2.9975
2.99755
2.99762
2.9977
2.99781
2.99795
2.99812
2.99832
2.99856
2.99883
2.99914
2.99948
2.99986
3.00026
3.00069
3.00113
3.00158
3.00202
3.00245
3.00284
3.00319
3.00349
3.00373
3.00391
3.00402
3.00407
3.00406
3.00399
3.00387
3.00369
3.00347
3.0032
3.00287
3.00249
3.00206
3.00157
3.00103
3.00044
2.9998
2.99912
2.99841
2.99769
2.99697
2.99627
2.99559
2.99496
2.99437
2.99385
2.99339
2.99298
2.99263
2.99233
2.99207
2.99184
2.99164
2.99146
2.99132
2.99121
2.99114
2.99112
2.99117
2.9913
2.99151
2.99181
2.99222
2.99272
2.99332
2.99399
2.99472
2.99547
2.9962
2.99687
2.99744
2.99788
2.99818
2.99835
2.99841
2.99838
2.9983
2.99819
2.99808
2.99797
2.99787
2.99775
2.99761
2.99745
2.99727
2.99707
2.99688
2.9967
2.99654
2.9964
2.99629
2.99621
2.99615
2.99612
2.99611
2.99612
2.99615
2.99618
2.99622
2.99626
2.9963
2.99633
2.99637
2.99641
2.99644
2.99648
2.99652
2.99656
2.99661
2.99666
2.99673
2.9968
2.99688
2.99696
2.99705
2.99713
2.9972
2.99726
2.9973
2.99733
2.99735
2.99737
2.99737
2.99738
2.99739
2.99739
2.9974
2.99741
2.99743
2.99744
2.99745
2.99747
2.99748
2.99749
2.9975
2.9975
2.99751
2.99751
2.9975
2.9975
2.99749
2.99749
2.99748
2.99747
2.99746
2.99746
2.99745
2.99745
2.99744
2.99744
2.99744
2.99744
2.99744
2.99745
2.99745
2.99745
2.99745
2.99746
2.99746
2.99745
2.99745
2.99744
2.99744
2.99742
2.99741
2.9974
2.99739
2.99737
2.99736
2.99734
2.99733
2.99732
2.99731
2.99731
2.99731
2.99748
2.99748
2.99747
2.99746
2.99744
2.99741
2.99739
2.99735
2.99732
2.99729
2.99727
2.99724
2.99722
2.99721
2.9972
2.9972
2.9972
2.99721
2.99722
2.99723
2.99724
2.99725
2.99726
2.99728
2.99729
2.99729
2.9973
2.99731
2.99731
2.99732
2.99733
2.99734
2.99734
2.99735
2.99735
2.99734
2.99733
2.99731
2.99729
2.99725
2.99721
2.99716
2.99712
2.99707
2.99703
2.997
2.99697
2.99696
2.99696
2.99697
2.99698
2.997
2.99702
2.99703
2.99704
2.99705
2.99704
2.99704
2.99704
2.99703
2.99703
2.99703
2.99704
2.99705
2.99707
2.99708
2.9971
2.99713
2.99715
2.99717
2.99719
2.99722
2.99724
2.99727
2.99729
2.99732
2.99736
2.9974
2.99745
2.99751
2.99759
2.99769
2.9978
2.99795
2.99812
2.99833
2.99857
2.99884
2.99915
2.99948
2.99985
3.00023
3.00063
3.00104
3.00144
3.00184
3.00221
3.00254
3.00283
3.00307
3.00325
3.00337
3.00342
3.00342
3.00337
3.00328
3.00315
3.003
3.00282
3.00261
3.00238
3.00211
3.00182
3.00148
3.0011
3.00067
3.00019
2.99966
2.99909
2.99848
2.99786
2.99722
2.9966
2.996
2.99543
2.9949
2.99442
2.99398
2.9936
2.99325
2.99294
2.99265
2.99238
2.99213
2.9919
2.99169
2.99151
2.99137
2.99129
2.99128
2.99135
2.99151
2.99178
2.99216
2.99264
2.99322
2.99389
2.99461
2.99535
2.99608
2.99675
2.99732
2.99777
2.99808
2.99827
2.99834
2.99832
2.99825
2.99815
2.99805
2.99794
2.99783
2.99771
2.99758
2.99743
2.99726
2.99708
2.9969
2.99673
2.99658
2.99644
2.99633
2.99624
2.99617
2.99613
2.99611
2.99611
2.99612
2.99614
2.99617
2.9962
2.99624
2.99628
2.99632
2.99636
2.99641
2.99645
2.9965
2.99656
2.99662
2.99668
2.99676
2.99685
2.99694
2.99703
2.99712
2.9972
2.99727
2.99732
2.99735
2.99737
2.99738
2.99738
2.99737
2.99737
2.99736
2.99736
2.99736
2.99737
2.99737
2.99738
2.9974
2.99741
2.99742
2.99743
2.99744
2.99745
2.99746
2.99746
2.99746
2.99746
2.99746
2.99745
2.99745
2.99744
2.99743
2.99743
2.99742
2.99742
2.99742
2.99742
2.99742
2.99742
2.99742
2.99743
2.99743
2.99743
2.99743
2.99744
2.99744
2.99743
2.99743
2.99743
2.99742
2.99741
2.9974
2.99738
2.99737
2.99736
2.99734
2.99733
2.99732
2.99731
2.9973
2.9973
2.99729
2.99749
2.99749
2.99748
2.99746
2.99743
2.9974
2.99736
2.99732
2.99729
2.99725
2.99722
2.9972
2.99718
2.99718
2.99718
2.99718
2.9972
2.99721
2.99723
2.99725
2.99727
2.99729
2.99731
2.99732
2.99734
2.99734
2.99735
2.99735
2.99735
2.99735
2.99735
2.99734
2.99734
2.99734
2.99733
2.99732
2.9973
2.99728
2.99725
2.99721
2.99717
2.99712
2.99708
2.99703
2.997
2.99697
2.99695
2.99695
2.99696
2.99697
2.997
2.99703
2.99705
2.99708
2.99709
2.9971
2.99711
2.99711
2.9971
2.9971
2.99709
2.99709
2.99709
2.99709
2.99709
2.9971
2.99711
2.99712
2.99713
2.99715
2.99716
2.99718
2.9972
2.99723
2.99726
2.99729
2.99734
2.99739
2.99746
2.99755
2.99765
2.99778
2.99793
2.99811
2.99832
2.99857
2.99885
2.99915
2.99949
2.99985
3.00023
3.00061
3.001
3.00138
3.00174
3.00207
3.00236
3.0026
3.00277
3.00289
3.00295
3.00294
3.00288
3.00278
3.00264
3.00247
3.00229
3.00211
3.00192
3.00173
3.00153
3.00133
3.0011
3.00086
3.00058
3.00025
2.99989
2.99947
2.99902
2.99853
2.99801
2.99749
2.99696
2.99644
2.99594
2.99547
2.99504
2.99463
2.99426
2.99391
2.99358
2.99326
2.99294
2.99264
2.99235
2.99208
2.99184
2.99164
2.9915
2.99143
2.99145
2.99156
2.99179
2.99213
2.99258
2.99314
2.99378
2.99449
2.99522
2.99594
2.9966
2.99718
2.99763
2.99796
2.99816
2.99825
2.99826
2.9982
2.99812
2.99802
2.99791
2.9978
2.99769
2.99756
2.99741
2.99725
2.99709
2.99692
2.99676
2.99661
2.99648
2.99637
2.99627
2.9962
2.99614
2.99611
2.99609
2.99609
2.9961
2.99613
2.99615
2.99619
2.99622
2.99627
2.99632
2.99637
2.99643
2.99649
2.99655
2.99663
2.99671
2.9968
2.9969
2.997
2.9971
2.99719
2.99726
2.99732
2.99736
2.99739
2.99739
2.99739
2.99738
2.99737
2.99735
2.99734
2.99733
2.99733
2.99732
2.99733
2.99733
2.99734
2.99735
2.99736
2.99738
2.99739
2.9974
2.9974
2.99741
2.99741
2.99741
2.99741
2.99741
2.9974
2.9974
2.9974
2.99739
2.99739
2.99739
2.99739
2.99739
2.99739
2.99739
2.9974
2.9974
2.99741
2.99741
2.99742
2.99742
2.99742
2.99742
2.99741
2.99741
2.9974
2.99739
2.99738
2.99737
2.99736
2.99734
2.99733
2.99732
2.9973
2.9973
2.99729
2.99728
2.99728
2.99751
2.9975
2.99748
2.99745
2.99742
2.99738
2.99734
2.99729
2.99725
2.99722
2.99719
2.99717
2.99715
2.99715
2.99716
2.99718
2.9972
2.99722
2.99725
2.99728
2.99731
2.99733
2.99735
2.99737
2.99738
2.99738
2.99739
2.99739
2.99738
2.99737
2.99736
2.99735
2.99734
2.99733
2.99731
2.99729
2.99727
2.99724
2.9972
2.99717
2.99712
2.99708
2.99704
2.997
2.99697
2.99695
2.99694
2.99694
2.99696
2.99698
2.99702
2.99705
2.99709
2.99712
2.99715
2.99716
2.99717
2.99717
2.99717
2.99716
2.99715
2.99714
2.99713
2.99713
2.99712
2.99712
2.99712
2.99712
2.99712
2.99713
2.99713
2.99715
2.99717
2.99719
2.99722
2.99727
2.99733
2.9974
2.99749
2.9976
2.99774
2.9979
2.99809
2.99831
2.99856
2.99884
2.99916
2.9995
2.99986
3.00024
3.00062
3.001
3.00136
3.0017
3.00201
3.00226
3.00245
3.00259
3.00265
3.00265
3.00258
3.00246
3.00229
3.00209
3.00188
3.00165
3.00143
3.00122
3.00102
3.00084
3.00068
3.00053
3.00037
3.00021
3.00002
2.9998
2.99955
2.99925
2.99892
2.99855
2.99816
2.99775
2.99732
2.9969
2.99648
2.99608
2.99569
2.99531
2.99495
2.99459
2.99423
2.99388
2.99352
2.99317
2.99282
2.9925
2.9922
2.99194
2.99175
2.99163
2.99159
2.99166
2.99184
2.99214
2.99255
2.99308
2.99369
2.99437
2.99508
2.99578
2.99644
2.99701
2.99747
2.99782
2.99804
2.99816
2.99819
2.99815
2.99808
2.99799
2.99789
2.99778
2.99766
2.99753
2.99739
2.99724
2.99708
2.99693
2.99678
2.99664
2.99651
2.9964
2.9963
2.99622
2.99616
2.99611
2.99608
2.99607
2.99607
2.99608
2.9961
2.99613
2.99617
2.99622
2.99627
2.99633
2.9964
2.99648
2.99656
2.99665
2.99674
2.99685
2.99695
2.99706
2.99716
2.99724
2.99731
2.99736
2.99739
2.99741
2.9974
2.99739
2.99738
2.99736
2.99734
2.99732
2.99731
2.99729
2.99729
2.99729
2.99729
2.99729
2.9973
2.99731
2.99732
2.99733
2.99734
2.99735
2.99735
2.99735
2.99736
2.99736
2.99736
2.99736
2.99736
2.99735
2.99735
2.99735
2.99735
2.99736
2.99736
2.99736
2.99737
2.99737
2.99738
2.99739
2.99739
2.9974
2.9974
2.9974
2.9974
2.9974
2.9974
2.99739
2.99738
2.99737
2.99736
2.99734
2.99733
2.99732
2.99731
2.99729
2.99729
2.99728
2.99727
2.99727
2.99752
2.99751
2.99748
2.99745
2.99741
2.99736
2.99731
2.99727
2.99722
2.99719
2.99716
2.99714
2.99714
2.99714
2.99716
2.99718
2.99721
2.99724
2.99727
2.9973
2.99733
2.99736
2.99738
2.9974
2.99741
2.99742
2.99742
2.99742
2.99741
2.9974
2.99738
2.99736
2.99734
2.99732
2.99729
2.99726
2.99723
2.9972
2.99716
2.99712
2.99708
2.99704
2.997
2.99696
2.99694
2.99693
2.99693
2.99694
2.99697
2.997
2.99704
2.99708
2.99713
2.99717
2.9972
2.99722
2.99723
2.99723
2.99723
2.99722
2.99721
2.99719
2.99718
2.99716
2.99715
2.99714
2.99713
2.99712
2.99711
2.99711
2.99711
2.99712
2.99713
2.99716
2.9972
2.99726
2.99733
2.99743
2.99754
2.99768
2.99785
2.99805
2.99827
2.99853
2.99882
2.99914
2.99949
2.99986
3.00024
3.00063
3.00101
3.00137
3.0017
3.00199
3.00222
3.00239
3.00248
3.00251
3.00246
3.00234
3.00216
3.00194
3.00168
3.0014
3.00111
3.00083
3.00057
3.00034
3.00014
2.99998
2.99984
2.99973
2.99963
2.99954
2.99944
2.99932
2.99917
2.999
2.99879
2.99856
2.99829
2.998
2.99769
2.99737
2.99704
2.9967
2.99636
2.99601
2.99565
2.99528
2.99489
2.9945
2.9941
2.9937
2.99331
2.99294
2.99259
2.99229
2.99204
2.99187
2.99179
2.99181
2.99194
2.9922
2.99257
2.99305
2.99362
2.99426
2.99494
2.99561
2.99625
2.99682
2.99729
2.99765
2.9979
2.99805
2.99811
2.9981
2.99805
2.99797
2.99787
2.99776
2.99764
2.99751
2.99737
2.99722
2.99707
2.99692
2.99678
2.99665
2.99653
2.99642
2.99632
2.99624
2.99617
2.99612
2.99608
2.99606
2.99605
2.99605
2.99606
2.99608
2.99612
2.99617
2.99623
2.9963
2.99638
2.99647
2.99657
2.99667
2.99678
2.99689
2.997
2.99711
2.9972
2.99728
2.99734
2.99738
2.9974
2.99741
2.9974
2.99738
2.99736
2.99734
2.99732
2.9973
2.99728
2.99727
2.99726
2.99725
2.99725
2.99725
2.99726
2.99726
2.99727
2.99728
2.99728
2.99729
2.99729
2.9973
2.9973
2.9973
2.99731
2.99731
2.99731
2.99731
2.99731
2.99731
2.99732
2.99732
2.99733
2.99733
2.99734
2.99735
2.99736
2.99736
2.99737
2.99738
2.99738
2.99739
2.99739
2.99739
2.99738
2.99738
2.99737
2.99736
2.99735
2.99734
2.99732
2.99731
2.9973
2.99729
2.99728
2.99727
2.99727
2.99727
2.99753
2.99751
2.99748
2.99744
2.9974
2.99734
2.99729
2.99724
2.9972
2.99717
2.99714
2.99713
2.99713
2.99715
2.99717
2.99719
2.99723
2.99726
2.99729
2.99733
2.99736
2.99738
2.99741
2.99743
2.99744
2.99745
2.99745
2.99744
2.99743
2.99741
2.99739
2.99737
2.99734
2.9973
2.99727
2.99723
2.99719
2.99715
2.99711
2.99707
2.99703
2.99699
2.99696
2.99693
2.99692
2.99692
2.99692
2.99695
2.99698
2.99702
2.99707
2.99712
2.99717
2.99721
2.99724
2.99727
2.99729
2.99729
2.99729
2.99728
2.99727
2.99725
2.99723
2.9972
2.99718
2.99716
2.99714
2.99712
2.9971
2.99709
2.99709
2.99709
2.99711
2.99714
2.99719
2.99726
2.99736
2.99747
2.99762
2.99779
2.99799
2.99823
2.99849
2.99879
2.99912
2.99947
2.99985
3.00024
3.00063
3.00101
3.00138
3.00171
3.00199
3.00221
3.00237
3.00244
3.00244
3.00235
3.0022
3.00197
3.0017
3.00138
3.00104
3.00069
3.00035
3.00003
2.99975
2.9995
2.9993
2.99915
2.99903
2.99895
2.9989
2.99887
2.99884
2.99881
2.99878
2.99872
2.99864
2.99853
2.9984
2.99824
2.99805
2.99784
2.99759
2.99732
2.99702
2.99669
2.99634
2.99596
2.99555
2.99513
2.99469
2.99425
2.99382
2.9934
2.99301
2.99267
2.99238
2.99217
2.99204
2.99201
2.9921
2.9923
2.99262
2.99304
2.99357
2.99416
2.9948
2.99544
2.99606
2.99662
2.99709
2.99747
2.99775
2.99792
2.99801
2.99804
2.99801
2.99794
2.99785
2.99774
2.99762
2.99748
2.99734
2.99719
2.99705
2.99691
2.99677
2.99665
2.99654
2.99644
2.99634
2.99626
2.99619
2.99613
2.99608
2.99605
2.99603
2.99602
2.99602
2.99604
2.99607
2.99613
2.99619
2.99627
2.99636
2.99647
2.99658
2.99669
2.99681
2.99693
2.99705
2.99715
2.99724
2.99731
2.99736
2.99738
2.9974
2.99739
2.99738
2.99736
2.99734
2.99732
2.9973
2.99728
2.99726
2.99724
2.99723
2.99722
2.99722
2.99722
2.99722
2.99722
2.99722
2.99723
2.99723
2.99724
2.99724
2.99725
2.99725
2.99725
2.99725
2.99726
2.99726
2.99726
2.99727
2.99727
2.99728
2.99729
2.99729
2.9973
2.99731
2.99732
2.99733
2.99734
2.99735
2.99736
2.99736
2.99737
2.99737
2.99737
2.99737
2.99736
2.99736
2.99735
2.99734
2.99733
2.99731
2.9973
2.99729
2.99728
2.99727
2.99727
2.99726
2.99726
2.99752
2.99751
2.99747
2.99743
2.99738
2.99733
2.99727
2.99722
2.99718
2.99715
2.99714
2.99713
2.99714
2.99716
2.99718
2.99721
2.99725
2.99728
2.99732
2.99735
2.99738
2.9974
2.99743
2.99744
2.99746
2.99746
2.99746
2.99746
2.99744
2.99742
2.9974
2.99736
2.99733
2.99729
2.99724
2.9972
2.99715
2.99711
2.99706
2.99702
2.99698
2.99695
2.99693
2.99691
2.9969
2.99691
2.99693
2.99696
2.997
2.99704
2.9971
2.99715
2.9972
2.99725
2.99729
2.99732
2.99734
2.99735
2.99734
2.99733
2.99732
2.9973
2.99727
2.99724
2.99721
2.99718
2.99715
2.99712
2.9971
2.99708
2.99708
2.99708
2.9971
2.99714
2.9972
2.99729
2.99741
2.99755
2.99772
2.99793
2.99817
2.99844
2.99875
2.99908
2.99944
2.99982
3.00022
3.00062
3.00101
3.00138
3.00171
3.002
3.00222
3.00237
3.00244
3.00242
3.00231
3.00213
3.00187
3.00155
3.00119
3.0008
3.00039
3
2.99962
2.99927
2.99896
2.99871
2.99851
2.99836
2.99826
2.99821
2.99819
2.99821
2.99825
2.99831
2.99837
2.99842
2.99847
2.99849
2.99849
2.99846
2.99839
2.99828
2.99812
2.99791
2.99766
2.99736
2.99701
2.99662
2.99619
2.99574
2.99528
2.9948
2.99434
2.99389
2.99346
2.99309
2.99276
2.99251
2.99234
2.99227
2.9923
2.99245
2.99271
2.99308
2.99355
2.99409
2.99467
2.99528
2.99586
2.99641
2.99688
2.99727
2.99757
2.99778
2.99791
2.99796
2.99796
2.99791
2.99783
2.99773
2.9976
2.99746
2.99731
2.99716
2.99702
2.99688
2.99676
2.99664
2.99654
2.99645
2.99636
2.99627
2.9962
2.99614
2.99608
2.99604
2.99601
2.99599
2.99599
2.996
2.99604
2.99609
2.99616
2.99625
2.99635
2.99647
2.99659
2.99672
2.99685
2.99697
2.99708
2.99718
2.99726
2.99731
2.99735
2.99737
2.99737
2.99736
2.99735
2.99733
2.99731
2.99729
2.99727
2.99725
2.99723
2.99722
2.99721
2.9972
2.99719
2.99719
2.99719
2.99719
2.99719
2.99719
2.99719
2.99719
2.9972
2.9972
2.9972
2.9972
2.99721
2.99721
2.99722
2.99722
2.99723
2.99724
2.99724
2.99725
2.99726
2.99727
2.99729
2.9973
2.99731
2.99732
2.99733
2.99734
2.99735
2.99735
2.99736
2.99736
2.99736
2.99735
2.99735
2.99734
2.99733
2.99732
2.99731
2.9973
2.99729
2.99728
2.99727
2.99726
2.99726
2.99725
2.99751
2.99749
2.99745
2.99741
2.99736
2.99731
2.99726
2.99721
2.99718
2.99715
2.99714
2.99715
2.99716
2.99718
2.99721
2.99724
2.99727
2.99731
2.99734
2.99737
2.99739
2.99742
2.99744
2.99746
2.99747
2.99747
2.99747
2.99747
2.99745
2.99743
2.9974
2.99736
2.99731
2.99727
2.99722
2.99716
2.99711
2.99706
2.99702
2.99698
2.99694
2.99692
2.9969
2.99689
2.99689
2.99691
2.99693
2.99697
2.99702
2.99707
2.99713
2.99718
2.99724
2.99729
2.99733
2.99736
2.99738
2.99739
2.99739
2.99738
2.99737
2.99734
2.99731
2.99727
2.99724
2.9972
2.99716
2.99713
2.9971
2.99708
2.99707
2.99708
2.99711
2.99716
2.99724
2.99734
2.99748
2.99765
2.99786
2.9981
2.99838
2.99869
2.99903
2.9994
2.99978
3.00019
3.00059
3.00099