# vtk DataFile Version 2.0
HPC Tutorials: Michael Bader, Kaveh Rahnema, Oliver Meister
ASCII
DATASET RECTILINEAR_GRID
DIMENSIONS 257 257 1
X_COORDINATES 257 float
0
0.005
0.01
0.015
0.02
0.025
0.03
0.035
0.04
0.045
0.05
0.055
0.06
0.065
0.07
0.075
0.08
0.085
0.09
0.095
0.1
0.105
0.11
0.115
0.12
0.125
0.13
0.135
0.14
0.145
0.15
0.155
0.16
0.165
0.17
0.175
0.18
0.185
0.19
0.195
0.2
0.205
0.21
0.215
0.22
0.225
0.23
0.235
0.24
0.245
0.25
0.255
0.26
0.265
0.27
0.275
0.28
0.285
0.29
0.295
0.3
0.305
0.31
0.315
0.32
0.325
0.33
0.335
0.34
0.345
0.35
0.355
0.36
0.365
0.37
0.375
0.38
0.385
0.39
0.395
0.4
0.405
0.41
0.415
0.42
0.425
0.43
0.435
0.44
0.445
0.45
0.455
0.46
0.465
0.47
0.475
0.48
0.485
0.49
0.495
0.5
0.505
0.51
0.515
0.52
0.525
0.53
0.535
0.54
0.545
0.55
0.555
0.56
0.565
0.57
0.575
0.58
0.585
0.59
0.595
0.6
0.605
0.61
0.615
0.62
0.625
0.63
0.635
0.64
0.645
0.65
0.655
0.66
0.665
0.67
0.675
0.68
0.685
0.69
0.695
0.7
0.705
0.71
0.715
0.72
0.725
0.73
0.735
0.74
0.745
0.75
0.755
0.76
0.765
0.77
0.775
0.78
0.785
0.79
0.795
0.8
0.805
0.81
0.815
0.82
0.825
0.83
0.835
0.84
0.845
0.85
0.855
0.86
0.865
0.87
0.875
0.88
0.885
0.89
0.895
0.9
0.905
0.91
0.915
0.92
0.925
0.93
0.935
0.94
0.945
0.95
0.955
0.96
0.965
0.97
0.975
0.98
0.985
0.99
0.995
1
1.005
1.01
1.015
1.02
1.025
1.03
1.035
1.04
1.045
1.05
1.055
1.06
1.065
1.07
1.075
1.08
1.085
1.09
1.095
1.1
1.105
1.11
1.115
1.12
1.125
1.13
1.135
1.14
1.145
1.15
1.155
1.16
1.165
1.17
1.175
1.18
1.185
1.19
1.195
1.2
1.205
1.21
1.215
1.22
1.225
1.23
1.235
1.24
1.245
1.25
1.255
1.26
1.265
1.27
1.275
1.28
Y_COORDINATES 257 float
0
0.005
0.01
0.015
0.02
0.025
0.03
0.035
0.04
0.045
0.05
0.055
0.06
0.065
0.07
0.075
0.08
0.085
0.09
0.095
0.1
0.105
0.11
0.115
0.12
0.125
0.13
0.135
0.14
0.145
0.15
0.155
0.16
0.165
0.17
0.175
0.18
0.185
0.19
0.195
0.2
0.205
0.21
0.215
0.22
0.225
0.23
0.235
0.24
0.245
0.25
0.255
0.26
0.265
0.27
0.275
0.28
0.285
0.29
0.295
0.3
0.305
0.31
0.315
0.32
0.325
0.33
0.335
0.34
0.345
0.35
0.355
0.36
0.365
0.37
0.375
0.38
0.385
0.39
0.395
0.4
0.405
0.41
0.415
0.42
0.425
0.43
0.435
0.44
0.445
0.45
0.455
0.46
0.465
0.47
0.475
0.48
0.485
0.49
0.495
0.5
0.505
0.51
0.515
0.52
0.525
0.53
0.535
0.54
0.545
0.55
0.555
0.56
0.565
0.57
0.575
0.58
0.585
0.59
0.595
0.6
0.605
0.61
0.615
0.62
0.625
0.63
0.635
0.64
0.645
0.65
0.655
0.66
0.665
0.67
0.675
0.68
0.685
0.69
0.695
0.7
0.705
0.71
0.715
0.72
0.725
0.73
0.735
0.74
0.745
0.75
0.755
0.76
0.765
0.77
0.775
0.78
0.785
0.79
0.795
0.8
0.805
0.81
0.815
0.82
0.825
0.83
0.835
0.84
0.845
0.85
0.855
0.86
0.865
0.87
0.875
0.88
0.885
0.89
0.895
0.9
0.905
0.91
0.915
0.92
0.925
0.93
0.935
0.94
0.945
0.95
0.955
0.96
0.965
0.97
0.975
0.98
0.985
0.99
0.995
1
1.005
1.01
1.015
1.02
1.025
1.03
1.035
1.04
1.045
1.05
1.055
1.06
1.065
1.07
1.075
1.08
1.085
1.09
1.095
1.1
1.105
1.11
1.115
1.12
1.125
1.13
1.135
1.14
1.145
1.15
1.155
1.16
1.165
1.17
1.175
1.18
1.185
1.19
1.195
1.2
1.205
1.21
1.215
1.22
1.225
1.23
1.235
1.24
1.245
1.25
1.255
1.26
1.265
1.27
1.275
1.28
Z_COORDINATES 1 float
0
CELL_DATA 65536
SCALARS H float 1
LOOKUP_TABLE default
2.99698
2.99696
2.99692
2.99687
2.99681
2.99674
2.99666
2.99657
2.99649
2.9964
2.99632
2.99624
2.99617
2.99611
2.99605
2.996
2.99596
2.99593
2.99591
2.9959
2.9959
2.99592
2.99595
2.99599
2.99605
2.99612
2.9962
2.99629
2.99638
2.99647
2.99655
2.99664
2.99672
2.99679
2.99686
2.99693
2.997
2.99706
2.99712
2.99717
2.99721
2.99724
2.99726
2.99727
2.99728
2.99727
2.99727
2.99727
2.99728
2.9973
2.99733
2.99738
2.99747
2.99758
2.99773
2.99793
2.99818
2.99848
2.99884
2.99926
2.99975
3.0003
3.0009
3.00155
3.00224
3.00295
3.00365
3.00433
3.00496
3.00551
3.00596
3.00629
3.00647
3.00649
3.00636
3.00605
3.00559
3.00499
3.00425
3.00341
3.00249
3.0015
3.00049
2.99946
2.99845
2.99745
2.99649
2.99558
2.99472
2.99392
2.99319
2.99252
2.99193
2.99141
2.99098
2.99064
2.99039
2.99023
2.99016
2.99018
2.99028
2.99045
2.99067
2.99093
2.99121
2.99149
2.99176
2.99201
2.99222
2.9924
2.99255
2.99267
2.99277
2.99286
2.99296
2.99308
2.99323
2.99344
2.99371
2.99405
2.99447
2.99497
2.99553
2.99615
2.99677
2.99738
2.99793
2.99838
2.99871
2.99891
2.99898
2.99894
2.99883
2.99869
2.99854
2.9984
2.99827
2.99816
2.99804
2.9979
2.99774
2.99756
2.99736
2.99717
2.99699
2.99685
2.99675
2.99668
2.99665
2.99664
2.99665
2.99666
2.99669
2.99671
2.99673
2.99675
2.99676
2.99676
2.99675
2.99674
2.99674
2.99674
2.99676
2.99679
2.99684
2.99692
2.99701
2.99711
2.99723
2.99736
2.99748
2.99759
2.99769
2.99776
2.9978
2.9978
2.99778
2.99773
2.99766
2.99759
2.99751
2.99744
2.99737
2.99731
2.99726
2.99722
2.99719
2.99716
2.99714
2.99713
2.99712
2.99712
2.99711
2.99711
2.99711
2.9971
2.9971
2.9971
2.9971
2.99711
2.99711
2.99711
2.99712
2.99713
2.99714
2.99715
2.99716
2.99717
2.99719
2.9972
2.99722
2.99723
2.99725
2.99726
2.99727
2.99728
2.99729
2.99729
2.9973
2.9973
2.9973
2.9973
2.99729
2.99729
2.99729
2.99728
2.99727
2.99727
2.99726
2.99726
2.99726
2.99726
2.99726
2.99726
2.99726
2.99727
2.99727
2.99728
2.99728
2.99729
2.99729
2.9973
2.9973
2.99731
2.99731
2.99731
2.99731
2.99732
2.99732
2.99732
2.99732
2.99732
2.99732
2.99732
2.99732
2.99732
2.99696
2.99694
2.99691
2.99686
2.99681
2.99674
2.99667
2.99659
2.9965
2.99642
2.99634
2.99626
2.99619
2.99613
2.99607
2.99602
2.99597
2.99594
2.99592
2.99591
2.99591
2.99593
2.99596
2.99601
2.99607
2.99614
2.99622
2.9963
2.99639
2.99647
2.99656
2.99664
2.99671
2.99679
2.99686
2.99692
2.99699
2.99705
2.99711
2.99715
2.9972
2.99723
2.99725
2.99726
2.99727
2.99727
2.99727
2.99728
2.99729
2.99731
2.99735
2.99742
2.99751
2.99763
2.99779
2.998
2.99825
2.99856
2.99892
2.99935
2.99983
3.00038
3.00097
3.00161
3.00228
3.00296
3.00364
3.00428
3.00488
3.00539
3.00581
3.0061
3.00626
3.00627
3.00613
3.00583
3.00538
3.00479
3.00408
3.00327
3.00238
3.00143
3.00044
2.99945
2.99845
2.99748
2.99654
2.99564
2.99479
2.994
2.99328
2.99262
2.99204
2.99153
2.99111
2.99077
2.99052
2.99037
2.9903
2.99031
2.9904
2.99055
2.99075
2.99099
2.99124
2.9915
2.99175
2.99199
2.99219
2.99236
2.99251
2.99263
2.99273
2.99283
2.99294
2.99307
2.99323
2.99344
2.99371
2.99405
2.99447
2.99496
2.99552
2.99613
2.99676
2.99736
2.99791
2.99836
2.9987
2.9989
2.99897
2.99894
2.99884
2.9987
2.99855
2.9984
2.99828
2.99816
2.99804
2.9979
2.99774
2.99756
2.99736
2.99717
2.99699
2.99685
2.99675
2.99668
2.99665
2.99664
2.99665
2.99667
2.99669
2.99671
2.99673
2.99675
2.99676
2.99676
2.99675
2.99674
2.99673
2.99674
2.99675
2.99679
2.99684
2.99692
2.99701
2.99711
2.99723
2.99735
2.99746
2.99757
2.99766
2.99772
2.99776
2.99777
2.99774
2.9977
2.99764
2.99757
2.9975
2.99743
2.99737
2.99731
2.99727
2.99723
2.9972
2.99718
2.99716
2.99715
2.99714
2.99713
2.99713
2.99712
2.99712
2.99712
2.99712
2.99712
2.99712
2.99712
2.99712
2.99712
2.99713
2.99714
2.99715
2.99716
2.99717
2.99718
2.99719
2.99721
2.99722
2.99724
2.99725
2.99726
2.99727
2.99728
2.99729
2.99729
2.9973
2.9973
2.9973
2.9973
2.99729
2.99729
2.99728
2.99728
2.99727
2.99727
2.99726
2.99726
2.99726
2.99725
2.99726
2.99726
2.99726
2.99726
2.99727
2.99727
2.99728
2.99728
2.99729
2.99729
2.9973
2.9973
2.99731
2.99731
2.99731
2.99731
2.99731
2.99731
2.99732
2.99732
2.99732
2.99732
2.99732
2.99732
2.99692
2.99691
2.99688
2.99685
2.9968
2.99674
2.99668
2.99661
2.99653
2.99645
2.99637
2.9963
2.99623
2.99616
2.9961
2.99604
2.996
2.99596
2.99594
2.99593
2.99593
2.99595
2.99598
2.99603
2.99609
2.99616
2.99624
2.99632
2.9964
2.99649
2.99657
2.99664
2.99671
2.99678
2.99685
2.99691
2.99697
2.99703
2.99709
2.99714
2.99718
2.99721
2.99723
2.99725
2.99726
2.99727
2.99728
2.99729
2.99731
2.99735
2.9974
2.99748
2.99758
2.99772
2.99789
2.99811
2.99838
2.99869
2.99906
2.99949
2.99997
3.0005
3.00108
3.00169
3.00233
3.00297
3.00359
3.00418
3.00472
3.00518
3.00555
3.0058
3.00593
3.00592
3.00577
3.00548
3.00506
3.0045
3.00383
3.00307
3.00222
3.00132
3.00039
2.99943
2.99847
2.99753
2.99661
2.99574
2.99491
2.99414
2.99343
2.99278
2.99221
2.99172
2.99131
2.99098
2.99074
2.99059
2.99051
2.99051
2.99058
2.9907
2.99087
2.99107
2.99129
2.99151
2.99174
2.99194
2.99213
2.9923
2.99245
2.99257
2.99269
2.9928
2.99292
2.99305
2.99322
2.99343
2.99371
2.99405
2.99446
2.99495
2.99551
2.99611
2.99673
2.99733
2.99788
2.99833
2.99867
2.99888
2.99896
2.99894
2.99885
2.99871
2.99856
2.99842
2.99829
2.99817
2.99804
2.9979
2.99774
2.99755
2.99736
2.99717
2.99699
2.99685
2.99675
2.99669
2.99665
2.99665
2.99666
2.99667
2.9967
2.99672
2.99674
2.99675
2.99675
2.99675
2.99674
2.99673
2.99673
2.99673
2.99675
2.99678
2.99684
2.99691
2.997
2.9971
2.99721
2.99732
2.99743
2.99753
2.99761
2.99767
2.9977
2.99771
2.99769
2.99765
2.9976
2.99754
2.99748
2.99742
2.99737
2.99732
2.99728
2.99725
2.99722
2.9972
2.99718
2.99717
2.99716
2.99715
2.99715
2.99714
2.99714
2.99714
2.99714
2.99714
2.99714
2.99714
2.99714
2.99714
2.99715
2.99715
2.99716
2.99717
2.99718
2.99719
2.9972
2.99722
2.99723
2.99724
2.99725
2.99726
2.99727
2.99728
2.99729
2.99729
2.99729
2.9973
2.99729
2.99729
2.99729
2.99728
2.99728
2.99727
2.99727
2.99726
2.99726
2.99725
2.99725
2.99725
2.99725
2.99725
2.99725
2.99726
2.99726
2.99727
2.99727
2.99728
2.99728
2.99729
2.99729
2.9973
2.9973
2.9973
2.99731
2.99731
2.99731
2.99731
2.99731
2.99731
2.99731
2.99731
2.99731
2.99731
2.99687
2.99686
2.99685
2.99682
2.99679
2.99674
2.99669
2.99663
2.99656
2.99649
2.99642
2.99634
2.99627
2.9962
2.99614
2.99608
2.99603
2.996
2.99597
2.99596
2.99596
2.99598
2.99601
2.99606
2.99612
2.99619
2.99626
2.99634
2.99642
2.9965
2.99658
2.99665
2.99671
2.99678
2.99684
2.9969
2.99695
2.99701
2.99706
2.99711
2.99715
2.99718
2.99721
2.99723
2.99725
2.99727
2.99729
2.99731
2.99735
2.9974
2.99747
2.99756
2.99769
2.99784
2.99804
2.99827
2.99855
2.99888
2.99926
2.99968
3.00015
3.00067
3.00122
3.00179
3.00238
3.00296
3.00352
3.00404
3.0045
3.00488
3.00518
3.00538
3.00547
3.00543
3.00528
3.005
3.00461
3.00409
3.00348
3.00278
3.002
3.00117
3.00029
2.9994
2.99849
2.9976
2.99672
2.99588
2.99508
2.99433
2.99364
2.99302
2.99247
2.992
2.9916
2.99129
2.99105
2.9909
2.99081
2.99079
2.99082
2.99091
2.99103
2.99118
2.99135
2.99153
2.99172
2.9919
2.99207
2.99223
2.99237
2.9925
2.99263
2.99275
2.99288
2.99303
2.99321
2.99343
2.9937
2.99404
2.99445
2.99493
2.99548
2.99607
2.99668
2.99728
2.99783
2.99829
2.99864
2.99886
2.99895
2.99894
2.99886
2.99872
2.99858
2.99843
2.9983
2.99818
2.99805
2.9979
2.99774
2.99755
2.99736
2.99717
2.99699
2.99686
2.99676
2.99669
2.99666
2.99665
2.99666
2.99668
2.9967
2.99672
2.99674
2.99675
2.99675
2.99674
2.99673
2.99672
2.99672
2.99672
2.99674
2.99678
2.99683
2.99691
2.99699
2.99709
2.99719
2.99729
2.99739
2.99748
2.99754
2.99759
2.99762
2.99763
2.99762
2.99759
2.99755
2.99751
2.99746
2.99742
2.99737
2.99733
2.9973
2.99727
2.99725
2.99723
2.99721
2.9972
2.99719
2.99719
2.99718
2.99718
2.99717
2.99717
2.99717
2.99716
2.99716
2.99716
2.99716
2.99717
2.99717
2.99717
2.99718
2.99719
2.9972
2.99721
2.99722
2.99723
2.99724
2.99725
2.99726
2.99727
2.99727
2.99728
2.99729
2.99729
2.99729
2.99729
2.99729
2.99729
2.99728
2.99728
2.99727
2.99726
2.99726
2.99725
2.99725
2.99724
2.99724
2.99724
2.99724
2.99724
2.99725
2.99725
2.99726
2.99726
2.99727
2.99727
2.99728
2.99728
2.99729
2.99729
2.99729
2.9973
2.9973
2.9973
2.9973
2.9973
2.9973
2.9973
2.9973
2.9973
2.9973
2.9973
2.99681
2.99681
2.9968
2.99679
2.99676
2.99674
2.9967
2.99665
2.99659
2.99653
2.99646
2.99639
2.99632
2.99625
2.99619
2.99613
2.99608
2.99604
2.99601
2.996
2.996
2.99602
2.99605
2.9961
2.99616
2.99622
2.9963
2.99637
2.99645
2.99652
2.99659
2.99665
2.99671
2.99677
2.99682
2.99688
2.99693
2.99698
2.99703
2.99708
2.99712
2.99715
2.99718
2.99721
2.99724
2.99727
2.9973
2.99734
2.99739
2.99747
2.99756
2.99768
2.99783
2.99801
2.99822
2.99848
2.99878
2.99912
2.9995
2.99992
3.00038
3.00087
3.00138
3.0019
3.00242
3.00293
3.0034
3.00383
3.0042
3.0045
3.00472
3.00485
3.00489
3.00483
3.00467
3.00441
3.00405
3.00359
3.00304
3.00242
3.00172
3.00097
3.00017
2.99935
2.99851
2.99767
2.99685
2.99605
2.99529
2.99457
2.99391
2.99332
2.9928
2.99235
2.99197
2.99167
2.99144
2.99128
2.99118
2.99113
2.99113
2.99116
2.99123
2.99132
2.99144
2.99157
2.99171
2.99185
2.992
2.99214
2.99228
2.99242
2.99255
2.99269
2.99283
2.99299
2.99318
2.99341
2.99369
2.99403
2.99443
2.99491
2.99544
2.99603
2.99664
2.99723
2.99778
2.99825
2.9986
2.99883
2.99894
2.99894
2.99886
2.99874
2.99859
2.99845
2.99832
2.99819
2.99805
2.99791
2.99774
2.99755
2.99736
2.99717
2.997
2.99686
2.99676
2.9967
2.99667
2.99667
2.99667
2.99669
2.99671
2.99673
2.99674
2.99674
2.99674
2.99673
2.99672
2.99671
2.9967
2.99671
2.99673
2.99677
2.99683
2.9969
2.99698
2.99707
2.99717
2.99726
2.99734
2.99741
2.99747
2.99751
2.99753
2.99754
2.99753
2.99752
2.99749
2.99747
2.99744
2.99741
2.99738
2.99735
2.99732
2.9973
2.99728
2.99727
2.99725
2.99724
2.99723
2.99722
2.99722
2.99721
2.99721
2.9972
2.9972
2.9972
2.99719
2.99719
2.99719
2.99719
2.9972
2.9972
2.9972
2.99721
2.99722
2.99722
2.99723
2.99724
2.99725
2.99726
2.99726
2.99727
2.99728
2.99728
2.99729
2.99729
2.99729
2.99729
2.99728
2.99728
2.99728
2.99727
2.99726
2.99726
2.99725
2.99725
2.99724
2.99724
2.99723
2.99723
2.99723
2.99724
2.99724
2.99724
2.99725
2.99725
2.99726
2.99726
2.99727
2.99727
2.99728
2.99728
2.99729
2.99729
2.99729
2.99729
2.9973
2.9973
2.9973
2.9973
2.9973
2.9973
2.9973
2.9973
2.99674
2.99674
2.99674
2.99674
2.99674
2.99672
2.9967
2.99666
2.99662
2.99657
2.99651
2.99644
2.99638
2.99631
2.99624
2.99618
2.99613
2.99609
2.99606
2.99605
2.99605
2.99607
2.9961
2.99615
2.9962
2.99627
2.99634
2.99641
2.99648
2.99655
2.99661
2.99666
2.99671
2.99676
2.99681
2.99686
2.9969
2.99695
2.997
2.99704
2.99708
2.99712
2.99715
2.99719
2.99723
2.99727
2.99732
2.99738
2.99745
2.99755
2.99767
2.99782
2.998
2.99821
2.99845
2.99873
2.99904
2.99939
2.99978
3.00019
3.00063
3.00109
3.00155
3.00201
3.00245
3.00287
3.00325
3.00357
3.00384
3.00404
3.00418
3.00424
3.00423
3.00414
3.00397
3.00373
3.00341
3.00301
3.00253
3.00199
3.00138
3.00072
3.00002
2.99928
2.99852
2.99775
2.99699
2.99625
2.99554
2.99487
2.99425
2.99369
2.9932
2.99278
2.99242
2.99213
2.9919
2.99173
2.99161
2.99152
2.99147
2.99146
2.99146
2.99149
2.99155
2.99162
2.99171
2.99182
2.99194
2.99206
2.99219
2.99233
2.99247
2.99262
2.99277
2.99295
2.99315
2.99338
2.99366
2.994
2.9944
2.99487
2.9954
2.99598
2.99658
2.99717
2.99772
2.99819
2.99856
2.9988
2.99892
2.99894
2.99887
2.99875
2.99861
2.99847
2.99833
2.9982
2.99806
2.99791
2.99774
2.99756
2.99736
2.99718
2.99701
2.99687
2.99678
2.99671
2.99669
2.99668
2.99669
2.9967
2.99671
2.99673
2.99673
2.99673
2.99673
2.99671
2.9967
2.99668
2.99668
2.99668
2.99671
2.99675
2.99681
2.99689
2.99697
2.99705
2.99713
2.99721
2.99728
2.99733
2.99738
2.99741
2.99743
2.99744
2.99744
2.99744
2.99743
2.99742
2.99741
2.9974
2.99738
2.99737
2.99735
2.99733
2.99732
2.99731
2.9973
2.99728
2.99728
2.99727
2.99726
2.99725
2.99725
2.99724
2.99724
2.99723
2.99723
2.99723
2.99723
2.99723
2.99723
2.99723
2.99723
2.99723
2.99724
2.99724
2.99725
2.99725
2.99726
2.99727
2.99727
2.99728
2.99728
2.99729
2.99729
2.99729
2.99729
2.99728
2.99728
2.99728
2.99727
2.99726
2.99726
2.99725
2.99724
2.99724
2.99723
2.99723
2.99723
2.99723
2.99723
2.99723
2.99723
2.99724
2.99724
2.99725
2.99725
2.99726
2.99726
2.99727
2.99727
2.99728
2.99728
2.99728
2.99729
2.99729
2.99729
2.99729
2.99729
2.99729
2.99729
2.99729
2.99729
2.99729
2.99666
2.99667
2.99668
2.99669
2.9967
2.9967
2.99669
2.99667
2.99664
2.9966
2.99655
2.99649
2.99643
2.99637
2.9963
2.99624
2.99619
2.99615
2.99613
2.99611
2.99611
2.99613
2.99616
2.9962
2.99626
2.99632
2.99638
2.99645
2.99651
2.99657
2.99663
2.99667
2.99672
2.99676
2.9968
2.99684
2.99688
2.99692
2.99696
2.997
2.99704
2.99708
2.99712
2.99717
2.99722
2.99727
2.99734
2.99743
2.99753
2.99766
2.99781
2.99799
2.9982
2.99844
2.99871
2.99901
2.99934
2.9997
3.00009
3.00049
3.0009
3.00131
3.00171
3.0021
3.00245
3.00277
3.00304
3.00326
3.00342
3.00352
3.00357
3.00356
3.00349
3.00337
3.0032
3.00298
3.00269
3.00235
3.00196
3.0015
3.00099
3.00043
2.99982
2.99918
2.99851
2.99783
2.99714
2.99647
2.99582
2.99521
2.99464
2.99412
2.99367
2.99327
2.99294
2.99266
2.99242
2.99224
2.99208
2.99196
2.99186
2.99178
2.99173
2.9917
2.99169
2.9917
2.99174
2.99181
2.99189
2.99199
2.99211
2.99225
2.99239
2.99254
2.99271
2.99289
2.9931
2.99334
2.99362
2.99396
2.99436
2.99483
2.99535
2.99592
2.99652
2.99711
2.99766
2.99814
2.99851
2.99876
2.9989
2.99892
2.99887
2.99876
2.99862
2.99848
2.99834
2.9982
2.99806
2.99791
2.99775
2.99756
2.99737
2.99719
2.99703
2.99689
2.99679
2.99673
2.9967
2.99669
2.9967
2.99671
2.99672
2.99672
2.99672
2.99672
2.9967
2.99668
2.99666
2.99665
2.99664
2.99666
2.99669
2.99673
2.9968
2.99687
2.99695
2.99702
2.9971
2.99716
2.99721
2.99725
2.99728
2.9973
2.99732
2.99733
2.99734
2.99735
2.99736
2.99737
2.99738
2.99738
2.99738
2.99738
2.99738
2.99737
2.99736
2.99735
2.99734
2.99733
2.99732
2.99731
2.9973
2.9973
2.99729
2.99729
2.99728
2.99728
2.99727
2.99727
2.99726
2.99726
2.99726
2.99726
2.99726
2.99726
2.99726
2.99726
2.99727
2.99727
2.99727
2.99728
2.99728
2.99729
2.99729
2.99729
2.99729
2.99729
2.99729
2.99728
2.99728
2.99727
2.99727
2.99726
2.99725
2.99724
2.99724
2.99723
2.99723
2.99722
2.99722
2.99722
2.99722
2.99722
2.99722
2.99723
2.99723
2.99724
2.99724
2.99725
2.99726
2.99726
2.99727
2.99727
2.99727
2.99728
2.99728
2.99728
2.99728
2.99728
2.99728
2.99729
2.99729
2.99729
2.99729
2.99729
2.99657
2.99659
2.99661
2.99663
2.99665
2.99666
2.99667
2.99667
2.99665
2.99663
2.99659
2.99654
2.99648
2.99643
2.99637
2.99631
2.99626
2.99622
2.9962
2.99618
2.99618
2.9962
2.99623
2.99627
2.99632
2.99637
2.99643
2.99649
2.99655
2.9966
2.99665
2.99669
2.99672
2.99675
2.99679
2.99682
2.99685
2.99688
2.99692
2.99696
2.997
2.99705
2.9971
2.99715
2.99722
2.99729
2.99738
2.99749
2.99763
2.99778
2.99797
2.99818
2.99843
2.9987
2.999
2.99933
2.99967
3.00004
3.00041
3.00079
3.00116
3.00152
3.00186
3.00216
3.00241
3.00262
3.00278
3.00289
3.00294
3.00294
3.0029
3.00282
3.00271
3.00256
3.00239
3.00218
3.00193
3.00165
3.00133
3.00096
3.00055
3.00009
2.99958
2.99904
2.99848
2.99789
2.99729
2.9967
2.99613
2.99558
2.99507
2.99461
2.99419
2.99383
2.99351
2.99323
2.99299
2.99278
2.99259
2.99242
2.99227
2.99214
2.99202
2.99193
2.99186
2.99182
2.99181
2.99182
2.99187
2.99195
2.99205
2.99217
2.99231
2.99246
2.99263
2.99282
2.99303
2.99328
2.99357
2.99391
2.99431
2.99478
2.9953
2.99586
2.99646
2.99705
2.9976
2.99808
2.99846
2.99872
2.99887
2.99891
2.99886
2.99876
2.99863
2.99849
2.99835
2.99821
2.99807
2.99792
2.99776
2.99758
2.99739
2.99721
2.99705
2.99692
2.99682
2.99676
2.99672
2.99671
2.99671
2.99671
2.99671
2.99671
2.9967
2.99669
2.99666
2.99664
2.99662
2.9966
2.9966
2.99662
2.99666
2.99671
2.99677
2.99685
2.99692
2.99699
2.99705
2.9971
2.99714
2.99717
2.99719
2.9972
2.99722
2.99723
2.99725
2.99728
2.9973
2.99733
2.99735
2.99737
2.99739
2.9974
2.9974
2.9974
2.9974
2.99739
2.99738
2.99738
2.99737
2.99736
2.99735
2.99734
2.99734
2.99733
2.99732
2.99732
2.99731
2.99731
2.9973
2.9973
2.99729
2.99729
2.99729
2.99729
2.99729
2.99729
2.99729
2.99729
2.99729
2.99729
2.99729
2.9973
2.9973
2.9973
2.9973
2.99729
2.99729
2.99728
2.99728
2.99727
2.99726
2.99726
2.99725
2.99724
2.99723
2.99723
2.99722
2.99722
2.99722
2.99721
2.99721
2.99722
2.99722
2.99722
2.99723
2.99723
2.99724
2.99724
2.99725
2.99725
2.99726
2.99726
2.99727
2.99727
2.99727
2.99728
2.99728
2.99728
2.99728
2.99728
2.99728
2.99728
2.99728
2.99728
2.99649
2.9965
2.99653
2.99656
2.99659
2.99662
2.99664
2.99665
2.99665
2.99664
2.99661
2.99658
2.99653
2.99648
2.99643
2.99638
2.99634
2.9963
2.99628
2.99626
2.99626
2.99627
2.9963
2.99633
2.99638
2.99643
2.99648
2.99654
2.99659
2.99663
2.99667
2.9967
2.99673
2.99675
2.99677
2.9968
2.99682
2.99685
2.99688
2.99692
2.99696
2.99701
2.99707
2.99714
2.99722
2.99732
2.99744
2.99758
2.99774
2.99794
2.99816
2.99841
2.99868
2.99899
2.99932
2.99966
3.00002
3.00038
3.00074
3.00109
3.00141
3.00171
3.00196
3.00217
3.00232
3.00242
3.00247
3.00246
3.00241
3.00232
3.0022
3.00206
3.0019
3.00173
3.00154
3.00135
3.00114
3.00092
3.00066
3.00038
3.00006
2.9997
2.99931
2.99888
2.99842
2.99794
2.99744
2.99694
2.99646
2.99599
2.99555
2.99514
2.99476
2.99443
2.99412
2.99384
2.99359
2.99335
2.99313
2.99291
2.99271
2.99252
2.99235
2.99219
2.99207
2.99197
2.99191
2.99188
2.99189
2.99193
2.99201
2.99211
2.99223
2.99238
2.99255
2.99274
2.99295
2.99321
2.9935
2.99385
2.99425
2.99471
2.99524
2.9958
2.99639
2.99698
2.99753
2.99801
2.9984
2.99867
2.99883
2.99888
2.99885
2.99875
2.99863
2.99849
2.99835
2.99822
2.99808
2.99793
2.99777
2.9976
2.99742
2.99724
2.99708
2.99695
2.99685
2.99679
2.99675
2.99673
2.99671
2.99671
2.9967
2.99669
2.99667
2.99664
2.99661
2.99658
2.99656
2.99655
2.99655
2.99657
2.99662
2.99668
2.99675
2.99682
2.99689
2.99696
2.99701
2.99705
2.99707
2.99709
2.9971
2.99711
2.99712
2.99714
2.99717
2.9972
2.99724
2.99729
2.99733
2.99736
2.99739
2.99741
2.99742
2.99743
2.99743
2.99743
2.99742
2.99742
2.99741
2.9974
2.99739
2.99739
2.99738
2.99737
2.99737
2.99736
2.99735
2.99735
2.99734
2.99733
2.99733
2.99732
2.99732
2.99732
2.99731
2.99731
2.99731
2.99731
2.99731
2.99731
2.99731
2.99731
2.99731
2.99731
2.9973
2.9973
2.99729
2.99729
2.99728
2.99727
2.99727
2.99726
2.99725
2.99724
2.99723
2.99723
2.99722
2.99722
2.99721
2.99721
2.99721
2.99721
2.99722
2.99722
2.99722
2.99723
2.99723
2.99724
2.99724
2.99725
2.99725
2.99726
2.99726
2.99727
2.99727
2.99727
2.99727
2.99727
2.99727
2.99727
2.99727
2.99727
2.99727
2.99728
2.9964
2.99642
2.99645
2.99649
2.99653
2.99657
2.9966
2.99663
2.99664
2.99664
2.99663
2.9966
2.99657
2.99653
2.99649
2.99645
2.99642
2.99639
2.99636
2.99635
2.99635
2.99636
2.99638
2.99641
2.99645
2.99649
2.99654
2.99658
2.99663
2.99666
2.99669
2.99672
2.99674
2.99675
2.99677
2.99678
2.9968
2.99682
2.99685
2.99689
2.99693
2.99699
2.99706
2.99715
2.99725
2.99737
2.99751
2.99768
2.99788
2.99811
2.99837
2.99865
2.99897
2.9993
2.99965
3.00001
3.00037
3.00072
3.00106
3.00136
3.00163
3.00185
3.00202
3.00213
3.00218
3.00217
3.00211
3.00199
3.00185
3.00167
3.00148
3.00128
3.00108
3.00088
3.0007
3.00052
3.00034
3.00017
2.99998
2.99977
2.99954
2.99929
2.999
2.99868
2.99833
2.99796
2.99758
2.99719
2.99679
2.99641
2.99604
2.99569
2.99536
2.99505
2.99476
2.99448
2.99421
2.99394
2.99368
2.99342
2.99317
2.99292
2.9927
2.99249
2.99231
2.99216
2.99205
2.99198
2.99195
2.99196
2.992
2.99207
2.99218
2.99231
2.99246
2.99265
2.99286
2.99312
2.99342
2.99377
2.99417
2.99464
2.99517
2.99573
2.99633
2.99691
2.99746
2.99795
2.99834
2.99862
2.99879
2.99885
2.99882
2.99874
2.99862
2.99849
2.99836
2.99822
2.99809
2.99795
2.99779
2.99763
2.99745
2.99728
2.99712
2.99699
2.99689
2.99682
2.99677
2.99674
2.99672
2.9967
2.99668
2.99665
2.99662
2.99658
2.99655
2.99651
2.99649
2.99648
2.99649
2.99652
2.99657
2.99664
2.99671
2.99679
2.99686
2.99692
2.99696
2.99699
2.997
2.99701
2.99701
2.99702
2.99703
2.99706
2.99709
2.99714
2.99719
2.99725
2.9973
2.99735
2.99738
2.99741
2.99744
2.99745
2.99746
2.99746
2.99746
2.99746
2.99745
2.99744
2.99744
2.99743
2.99742
2.99741
2.99741
2.9974
2.99739
2.99738
2.99737
2.99737
2.99736
2.99735
2.99735
2.99734
2.99734
2.99733
2.99733
2.99733
2.99733
2.99733
2.99732
2.99732
2.99732
2.99732
2.99731
2.99731
2.9973
2.9973
2.99729
2.99728
2.99727
2.99726
2.99725
2.99724
2.99724
2.99723
2.99722
2.99722
2.99721
2.99721
2.99721
2.99721
2.99722
2.99722
2.99722
2.99723
2.99723
2.99724
2.99724
2.99725
2.99725
2.99726
2.99726
2.99726
2.99726
2.99727
2.99727
2.99727
2.99727
2.99727
2.99727
2.99727
2.99727
2.99727
2.99632
2.99634
2.99637
2.99642
2.99646
2.99651
2.99655
2.99659
2.99661
2.99663
2.99663
2.99662
2.9966
2.99658
2.99655
2.99652
2.9965
2.99647
2.99645
2.99644
2.99644
2.99644
2.99646
2.99648
2.99652
2.99655
2.99659
2.99663
2.99667
2.9967
2.99672
2.99673
2.99675
2.99675
2.99676
2.99677
2.99678
2.9968
2.99683
2.99686
2.99692
2.99698
2.99706
2.99717
2.99729
2.99744
2.99761
2.99782
2.99805
2.99831
2.99861
2.99893
2.99927
2.99963
2.99999
3.00036
3.00071
3.00105
3.00134
3.0016
3.0018
3.00194
3.00202
3.00203
3.00197
3.00186
3.00169
3.00149
3.00125
3.001
3.00075
3.0005
3.00027
3.00005
2.99986
2.9997
2.99955
2.99941
2.99928
2.99915
2.999
2.99884
2.99866
2.99845
2.99822
2.99797
2.9977
2.99742
2.99713
2.99684
2.99655
2.99627
2.99598
2.9957
2.99541
2.99512
2.99483
2.99454
2.99424
2.99393
2.99364
2.99335
2.99307
2.99282
2.99259
2.9924
2.99224
2.99213
2.99205
2.99202
2.99202
2.99206
2.99214
2.99224
2.99238
2.99256
2.99277
2.99302
2.99332
2.99367
2.99409
2.99456
2.99509
2.99566
2.99626
2.99684
2.99739
2.99788
2.99827
2.99856
2.99873
2.9988
2.99879
2.99872
2.99861
2.99848
2.99836
2.99823
2.9981
2.99797
2.99782
2.99766
2.99749
2.99733
2.99717
2.99704
2.99694
2.99686
2.9968
2.99676
2.99672
2.99668
2.99664
2.9966
2.99655
2.99651
2.99646
2.99642
2.9964
2.9964
2.99642
2.99646
2.99652
2.9966
2.99668
2.99676
2.99682
2.99688
2.99691
2.99693
2.99694
2.99694
2.99694
2.99695
2.99696
2.99699
2.99703
2.99709
2.99715
2.99721
2.99728
2.99733
2.99738
2.99742
2.99745
2.99747
2.99748
2.99749
2.99749
2.99749
2.99749
2.99748
2.99747
2.99747
2.99746
2.99745
2.99744
2.99743
2.99743
2.99742
2.99741
2.9974
2.99739
2.99738
2.99738
2.99737
2.99736
2.99736
2.99735
2.99735
2.99735
2.99734
2.99734
2.99734
2.99734
2.99733
2.99733
2.99732
2.99731
2.99731
2.9973
2.99729
2.99728
2.99727
2.99726
2.99725
2.99724
2.99723
2.99723
2.99722
2.99722
2.99722
2.99721
2.99721
2.99722
2.99722
2.99722
2.99723
2.99723
2.99724
2.99724
2.99725
2.99725
2.99725
2.99726
2.99726
2.99726
2.99726
2.99727
2.99727
2.99727
2.99727
2.99727
2.99727
2.99727
2.99727
2.99624
2.99626
2.9963
2.99634
2.99639
2.99644
2.99649
2.99654
2.99658
2.9966
2.99662
2.99663
2.99663
2.99662
2.99661
2.99659
2.99657
2.99656
2.99654
2.99653
2.99653
2.99653
2.99655
2.99656
2.99659
2.99662
2.99665
2.99668
2.9967
2.99672
2.99674
2.99675
2.99675
2.99675
2.99675
2.99676
2.99676
2.99678
2.99681
2.99685
2.99691
2.99699
2.99709
2.99721
2.99736
2.99753
2.99774
2.99798
2.99824
2.99854
2.99887
2.99922
2.99959
2.99996
3.00034
3.0007
3.00104
3.00134
3.00159
3.00178
3.00191
3.00196
3.00195
3.00186
3.00171
3.0015
3.00124
3.00095
3.00064
3.00033
3.00002
2.99974
2.99948
2.99925
2.99905
2.9989
2.99877
2.99867
2.99859
2.99852
2.99845
2.99838
2.9983
2.9982
2.99809
2.99796
2.99781
2.99764
2.99746
2.99727
2.99706
2.99683
2.99659
2.99633
2.99606
2.99576
2.99545
2.99513
2.9948
2.99446
2.99412
2.99379
2.99348
2.99318
2.99291
2.99268
2.99248
2.99232
2.9922
2.99212
2.99208
2.99208
2.99212
2.9922
2.99231
2.99247
2.99267
2.99291
2.99322
2.99358
2.994
2.99448
2.99501
2.99559
2.99618
2.99677
2.99732
2.9978
2.9982
2.99849
2.99867
2.99875
2.99875
2.99868
2.99859
2.99847
2.99835
2.99824
2.99812
2.99799
2.99785
2.9977
2.99754
2.99738
2.99723
2.9971
2.99699
2.9969
2.99683
2.99677
2.99671
2.99665
2.99659
2.99653
2.99647
2.99641
2.99636
2.99632
2.9963
2.9963
2.99633
2.99639
2.99647
2.99655
2.99664
2.99672
2.99679
2.99684
2.99687
2.99688
2.99689
2.99689
2.99689
2.99689
2.99691
2.99694
2.99699
2.99705
2.99712
2.99719
2.99726
2.99732
2.99737
2.99741
2.99745
2.99747
2.99749
2.9975
2.99751
2.99751
2.99751
2.99751
2.99751
2.9975
2.99749
2.99749
2.99748
2.99747
2.99746
2.99745
2.99744
2.99743
2.99742
2.99741
2.9974
2.99739
2.99739
2.99738
2.99738
2.99737
2.99737
2.99736
2.99736
2.99736
2.99735
2.99735
2.99734
2.99734
2.99733
2.99732
2.99731
2.9973
2.99729
2.99728
2.99727
2.99726
2.99725
2.99724
2.99723
2.99723
2.99722
2.99722
2.99722
2.99722
2.99722
2.99722
2.99723
2.99723
2.99723
2.99724
2.99724
2.99725
2.99725
2.99725
2.99726
2.99726
2.99726
2.99726
2.99727
2.99727
2.99727
2.99727
2.99727
2.99727
2.99727
2.99727
2.99617
2.99619
2.99623
2.99627
2.99632
2.99638
2.99643
2.99648
2.99653
2.99657
2.9966
2.99663
2.99665
2.99666
2.99666
2.99666
2.99665
2.99664
2.99663
2.99663
2.99662
2.99663
2.99663
2.99664
2.99666
2.99668
2.9967
2.99672
2.99674
2.99675
2.99676
2.99676
2.99676
2.99676
2.99675
2.99675
2.99676
2.99677
2.99681
2.99685
2.99692
2.99702
2.99713
2.99728
2.99745
2.99766
2.99789
2.99816
2.99847
2.9988
2.99915
2.99953
2.99991
3.0003
3.00067
3.00101
3.00132
3.00158
3.00177
3.0019
3.00194
3.00191
3.0018
3.00162
3.00138
3.00109
3.00075
3.0004
3.00003
2.99967
2.99932
2.999
2.99872
2.99848
2.99828
2.99813
2.99803
2.99796
2.99792
2.9979
2.9979
2.99791
2.99793
2.99794
2.99794
2.99793
2.9979
2.99785
2.99778
2.99767
2.99754
2.99738
2.99718
2.99695
2.99668
2.99639
2.99606
2.99572
2.99536
2.99499
2.99462
2.99426
2.99391
2.99358
2.99327
2.993
2.99276
2.99256
2.99239
2.99227
2.99218
2.99214
2.99214
2.99217
2.99226
2.99239
2.99257
2.99281
2.99311
2.99347
2.9939
2.99439
2.99493
2.99551
2.9961
2.99669
2.99724
2.99772
2.99811
2.99841
2.99859
2.99868
2.99869
2.99864
2.99856
2.99846
2.99835
2.99825
2.99814
2.99802
2.99789
2.99775
2.9976
2.99745
2.9973
2.99716
2.99705
2.99694
2.99685
2.99677
2.99669
2.99661
2.99653
2.99644
2.99636
2.99629
2.99623
2.99619
2.99618
2.99619
2.99624
2.99632
2.99641
2.99651
2.99661
2.99669
2.99676
2.9968
2.99683
2.99684
2.99684
2.99684
2.99684
2.99685
2.99687
2.99691
2.99696
2.99703
2.9971
2.99717
2.99724
2.9973
2.99736
2.9974
2.99744
2.99747
2.9975
2.99751
2.99753
2.99753
2.99754
2.99754
2.99753
2.99753
2.99752
2.99751
2.99751
2.9975
2.99749
2.99748
2.99746
2.99745
2.99744
2.99743
2.99742
2.99742
2.99741
2.9974
2.9974
2.99739
2.99739
2.99738
2.99738
2.99737
2.99737
2.99737
2.99736
2.99735
2.99735
2.99734
2.99733
2.99732
2.99731
2.99729
2.99728
2.99727
2.99726
2.99725
2.99724
2.99724
2.99723
2.99723
2.99723
2.99723
2.99723
2.99723
2.99723
2.99723
2.99724
2.99724
2.99725
2.99725
2.99725
2.99726
2.99726
2.99726
2.99726
2.99727
2.99727
2.99727
2.99727
2.99727
2.99727
2.99727
2.99727
2.99727
2.99611
2.99613
2.99616
2.9962
2.99625
2.99631
2.99637
2.99643
2.99648
2.99653
2.99658
2.99662
2.99666
2.99668
2.9967
2.99671
2.99672
2.99672
2.99672
2.99672
2.99672
2.99671
2.99672
2.99672
2.99673
2.99674
2.99675
2.99676
2.99677
2.99678
2.99678
2.99677
2.99677
2.99676
2.99675
2.99675
2.99676
2.99678
2.99682
2.99688
2.99696
2.99707
2.99721
2.99738
2.99758
2.99781
2.99808
2.99838
2.99872
2.99908
2.99946
2.99985
3.00024
3.00062
3.00098
3.00129
3.00156
3.00176
3.00189
3.00194
3.0019
3.00178
3.00159
3.00132
3.001
3.00064
3.00024
2.99983
2.99942
2.99902
2.99864
2.9983
2.998
2.99776
2.99756
2.99742
2.99732
2.99728
2.99727
2.99731
2.99737
2.99745
2.99756