# vtk DataFile Version 2.0
HPC Tutorials: Michael Bader, Kaveh Rahnema, Oliver Meister
ASCII
DATASET RECTILINEAR_GRID
DIMENSIONS 257 257 1
X_COORDINATES 257 float
0
0.005
0.01
0.015
0.02
0.025
0.03
0.035
0.04
0.045
0.05
0.055
0.06
0.065
0.07
0.075
0.08
0.085
0.09
0.095
0.1
0.105
0.11
0.115
0.12
0.125
0.13
0.135
0.14
0.145
0.15
0.155
0.16
0.165
0.17
0.175
0.18
0.185
0.19
0.195
0.2
0.205
0.21
0.215
0.22
0.225
0.23
0.235
0.24
0.245
0.25
0.255
0.26
0.265
0.27
0.275
0.28
0.285
0.29
0.295
0.3
0.305
0.31
0.315
0.32
0.325
0.33
0.335
0.34
0.345
0.35
0.355
0.36
0.365
0.37
0.375
0.38
0.385
0.39
0.395
0.4
0.405
0.41
0.415
0.42
0.425
0.43
0.435
0.44
0.445
0.45
0.455
0.46
0.465
0.47
0.475
0.48
0.485
0.49
0.495
0.5
0.505
0.51
0.515
0.52
0.525
0.53
0.535
0.54
0.545
0.55
0.555
0.56
0.565
0.57
0.575
0.58
0.585
0.59
0.595
0.6
0.605
0.61
0.615
0.62
0.625
0.63
0.635
0.64
0.645
0.65
0.655
0.66
0.665
0.67
0.675
0.68
0.685
0.69
0.695
0.7
0.705
0.71
0.715
0.72
0.725
0.73
0.735
0.74
0.745
0.75
0.755
0.76
0.765
0.77
0.775
0.78
0.785
0.79
0.795
0.8
0.805
0.81
0.815
0.82
0.825
0.83
0.835
0.84
0.845
0.85
0.855
0.86
0.865
0.87
0.875
0.88
0.885
0.89
0.895
0.9
0.905
0.91
0.915
0.92
0.925
0.93
0.935
0.94
0.945
0.95
0.955
0.96
0.965
0.97
0.975
0.98
0.985
0.99
0.995
1
1.005
1.01
1.015
1.02
1.025
1.03
1.035
1.04
1.045
1.05
1.055
1.06
1.065
1.07
1.075
1.08
1.085
1.09
1.095
1.1
1.105
1.11
1.115
1.12
1.125
1.13
1.135
1.14
1.145
1.15
1.155
1.16
1.165
1.17
1.175
1.18
1.185
1.19
1.195
1.2
1.205
1.21
1.215
1.22
1.225
1.23
1.235
1.24
1.245
1.25
1.255
1.26
1.265
1.27
1.275
1.28
Y_COORDINATES 257 float
0
0.005
0.01
0.015
0.02
0.025
0.03
0.035
0.04
0.045
0.05
0.055
0.06
0.065
0.07
0.075
0.08
0.085
0.09
0.095
0.1
0.105
0.11
0.115
0.12
0.125
0.13
0.135
0.14
0.145
0.15
0.155
0.16
0.165
0.17
0.175
0.18
0.185
0.19
0.195
0.2
0.205
0.21
0.215
0.22
0.225
0.23
0.235
0.24
0.245
0.25
0.255
0.26
0.265
0.27
0.275
0.28
0.285
0.29
0.295
0.3
0.305
0.31
0.315
0.32
0.325
0.33
0.335
0.34
0.345
0.35
0.355
0.36
0.365
0.37
0.375
0.38
0.385
0.39
0.395
0.4
0.405
0.41
0.415
0.42
0.425
0.43
0.435
0.44
0.445
0.45
0.455
0.46
0.465
0.47
0.475
0.48
0.485
0.49
0.495
0.5
0.505
0.51
0.515
0.52
0.525
0.53
0.535
0.54
0.545
0.55
0.555
0.56
0.565
0.57
0.575
0.58
0.585
0.59
0.595
0.6
0.605
0.61
0.615
0.62
0.625
0.63
0.635
0.64
0.645
0.65
0.655
0.66
0.665
0.67
0.675
0.68
0.685
0.69
0.695
0.7
0.705
0.71
0.715
0.72
0.725
0.73
0.735
0.74
0.745
0.75
0.755
0.76
0.765
0.77
0.775
0.78
0.785
0.79
0.795
0.8
0.805
0.81
0.815
0.82
0.825
0.83
0.835
0.84
0.845
0.85
0.855
0.86
0.865
0.87
0.875
0.88
0.885
0.89
0.895
0.9
0.905
0.91
0.915
0.92
0.925
0.93
0.935
0.94
0.945
0.95
0.955
0.96
0.965
0.97
0.975
0.98
0.985
0.99
0.995
1
1.005
1.01
1.015
1.02
1.025
1.03
1.035
1.04
1.045
1.05
1.055
1.06
1.065
1.07
1.075
1.08
1.085
1.09
1.095
1.1
1.105
1.11
1.115
1.12
1.125
1.13
1.135
1.14
1.145
1.15
1.155
1.16
1.165
1.17
1.175
1.18
1.185
1.19
1.195
1.2
1.205
1.21
1.215
1.22
1.225
1.23
1.235
1.24
1.245
1.25
1.255
1.26
1.265
1.27
1.275
1.28
Z_COORDINATES 1 float
0
CELL_DATA 65536
SCALARS H float 1
LOOKUP_TABLE default
2.99602
2.99603
2.99603
2.99604
2.99603
2.99603
2.99602
2.99601
2.99599
2.99598
2.99597
2.99596
2.99597
2.99599
2.99603
2.99608
2.99616
2.99626
2.99639
2.99656
2.99678
2.99704
2.99735
2.99772
2.99815
2.99865
2.9992
2.99981
3.00046
3.00114
3.00185
3.00255
3.00323
3.00387
3.00444
3.00492
3.00529
3.00553
3.00563
3.00558
3.00537
3.00502
3.00453
3.00391
3.00319
3.00237
3.00149
3.00055
2.9996
2.99863
2.99767
2.99673
2.99582
2.99494
2.99411
2.99334
2.99263
2.99198
2.9914
2.9909
2.99049
2.99017
2.98994
2.9898
2.98976
2.98981
2.98994
2.99014
2.99041
2.99071
2.99105
2.9914
2.99175
2.99207
2.99238
2.99265
2.99288
2.99308
2.99324
2.99337
2.99347
2.99356
2.99363
2.99368
2.99373
2.99378
2.99382
2.99385
2.99389
2.99394
2.994
2.99408
2.99419
2.99434
2.99454
2.99481
2.99514
2.99554
2.99601
2.99653
2.99708
2.99763
2.99814
2.99858
2.99891
2.99913
2.99922
2.99921
2.99911
2.99895
2.99878
2.9986
2.99845
2.99831
2.99819
2.99808
2.99796
2.99785
2.99773
2.99762
2.99753
2.99747
2.99744
2.99744
2.99746
2.99749
2.99751
2.9975
2.99747
2.99739
2.99728
2.99712
2.99693
2.99672
2.9965
2.99628
2.99608
2.99591
2.99578
2.99571
2.99569
2.99571
2.99578
2.99587
2.99596
2.99606
2.99614
2.9962
2.99625
2.99627
2.99629
2.99631
2.99633
2.99636
2.9964
2.99645
2.99652
2.99659
2.99667
2.99675
2.99682
2.99688
2.99693
2.99698
2.99702
2.99705
2.99707
2.9971
2.99712
2.99714
2.99715
2.99717
2.99718
2.9972
2.99721
2.99722
2.99724
2.99725
2.99726
2.99727
2.99729
2.9973
2.99732
2.99733
2.99734
2.99736
2.99737
2.99738
2.9974
2.99741
2.99742
2.99742
2.99743
2.99743
2.99743
2.99743
2.99742
2.99742
2.99741
2.9974
2.99739
2.99738
2.99737
2.99735
2.99735
2.99734
2.99733
2.99733
2.99732
2.99732
2.99732
2.99733
2.99733
2.99734
2.99734
2.99735
2.99735
2.99736
2.99737
2.99737
2.99738
2.99738
2.99738
2.99738
2.99739
2.99739
2.99739
2.99738
2.99738
2.99738
2.99738
2.99738
2.99737
2.99737
2.99737
2.99736
2.99736
2.99736
2.99735
2.99735
2.99735
2.99734
2.99734
2.99734
2.99734
2.99734
2.99734
2.99733
2.99733
2.99733
2.99733
2.99733
2.99733
2.99733
2.99733
2.99733
2.99603
2.99603
2.99604
2.99604
2.99604
2.99604
2.99603
2.99602
2.99601
2.996
2.99599
2.99599
2.996
2.99602
2.99606
2.99612
2.9962
2.99631
2.99645
2.99663
2.99685
2.99711
2.99743
2.99781
2.99824
2.99873
2.99928
2.99988
3.00052
3.00119
3.00187
3.00255
3.0032
3.0038
3.00434
3.00479
3.00513
3.00535
3.00543
3.00537
3.00516
3.00482
3.00434
3.00374
3.00304
3.00225
3.00139
3.00049
2.99956
2.99861
2.99767
2.99675
2.99585
2.99499
2.99418
2.99341
2.99271
2.99207
2.9915
2.99101
2.99061
2.99029
2.99006
2.98993
2.98989
2.98993
2.99005
2.99024
2.99049
2.99077
2.99109
2.99142
2.99175
2.99206
2.99235
2.99261
2.99284
2.99304
2.99321
2.99334
2.99345
2.99354
2.99362
2.99368
2.99373
2.99377
2.99381
2.99385
2.99389
2.99393
2.99399
2.99407
2.99418
2.99433
2.99453
2.9948
2.99514
2.99554
2.99602
2.99654
2.99709
2.99763
2.99814
2.99858
2.99891
2.99913
2.99922
2.9992
2.9991
2.99895
2.99877
2.9986
2.99845
2.99831
2.9982
2.99809
2.99798
2.99787
2.99775
2.99764
2.99755
2.99749
2.99745
2.99745
2.99746
2.99748
2.99749
2.99748
2.99743
2.99735
2.99723
2.99707
2.99688
2.99667
2.99645
2.99623
2.99604
2.99588
2.99576
2.9957
2.99569
2.99572
2.99579
2.99588
2.99598
2.99608
2.99616
2.99622
2.99627
2.9963
2.99632
2.99634
2.99636
2.99639
2.99642
2.99648
2.99654
2.99661
2.99668
2.99676
2.99682
2.99688
2.99693
2.99697
2.99701
2.99704
2.99707
2.99709
2.99711
2.99713
2.99715
2.99717
2.99718
2.99719
2.99721
2.99722
2.99723
2.99725
2.99726
2.99727
2.99729
2.9973
2.99731
2.99733
2.99734
2.99736
2.99737
2.99738
2.9974
2.99741
2.99742
2.99742
2.99743
2.99743
2.99743
2.99743
2.99742
2.99742
2.99741
2.9974
2.99739
2.99738
2.99736
2.99735
2.99735
2.99734
2.99733
2.99733
2.99733
2.99732
2.99733
2.99733
2.99733
2.99734
2.99734
2.99735
2.99735
2.99736
2.99737
2.99737
2.99738
2.99738
2.99738
2.99738
2.99738
2.99738
2.99738
2.99738
2.99738
2.99738
2.99738
2.99737
2.99737
2.99737
2.99736
2.99736
2.99736
2.99735
2.99735
2.99735
2.99734
2.99734
2.99734
2.99734
2.99734
2.99733
2.99733
2.99733
2.99733
2.99733
2.99733
2.99733
2.99733
2.99733
2.99733
2.99733
2.99603
2.99604
2.99605
2.99605
2.99606
2.99606
2.99605
2.99605
2.99604
2.99603
2.99602
2.99603
2.99604
2.99607
2.99612
2.99619
2.99628
2.9964
2.99655
2.99674
2.99697
2.99724
2.99757
2.99795
2.99838
2.99887
2.9994
2.99999
3.0006
3.00124
3.00188
3.00252
3.00312
3.00368
3.00416
3.00456
3.00486
3.00505
3.00511
3.00503
3.00483
3.0045
3.00405
3.00348
3.00282
3.00207
3.00126
3.0004
2.9995
2.9986
2.99769
2.9968
2.99592
2.99508
2.99429
2.99354
2.99285
2.99222
2.99167
2.99119
2.9908
2.99049
2.99027
2.99014
2.99009
2.99012
2.99022
2.99039
2.9906
2.99086
2.99114
2.99144
2.99174
2.99203
2.99231
2.99256
2.99279
2.99299
2.99316
2.9933
2.99342
2.99352
2.9936
2.99367
2.99372
2.99376
2.9938
2.99384
2.99387
2.99391
2.99397
2.99405
2.99416
2.99431
2.99452
2.99479
2.99513
2.99555
2.99602
2.99654
2.99709
2.99764
2.99815
2.99858
2.99891
2.99912
2.99921
2.99919
2.99909
2.99894
2.99877
2.9986
2.99845
2.99832
2.99821
2.99811
2.99801
2.9979
2.99778
2.99768
2.99758
2.99751
2.99747
2.99745
2.99745
2.99746
2.99746
2.99743
2.99737
2.99728
2.99715
2.99698
2.99679
2.99658
2.99637
2.99616
2.99598
2.99583
2.99574
2.99569
2.99569
2.99574
2.99582
2.99591
2.99602
2.99611
2.9962
2.99626
2.99631
2.99634
2.99636
2.99638
2.9964
2.99643
2.99647
2.99651
2.99657
2.99663
2.9967
2.99676
2.99682
2.99688
2.99693
2.99697
2.997
2.99703
2.99706
2.99709
2.99711
2.99713
2.99714
2.99716
2.99718
2.99719
2.9972
2.99722
2.99723
2.99724
2.99726
2.99727
2.99728
2.9973
2.99731
2.99733
2.99734
2.99735
2.99737
2.99738
2.99739
2.9974
2.99741
2.99742
2.99742
2.99743
2.99743
2.99742
2.99742
2.99741
2.9974
2.99739
2.99738
2.99737
2.99736
2.99735
2.99735
2.99734
2.99733
2.99733
2.99733
2.99733
2.99733
2.99733
2.99733
2.99734
2.99734
2.99735
2.99735
2.99736
2.99737
2.99737
2.99737
2.99738
2.99738
2.99738
2.99738
2.99738
2.99738
2.99738
2.99738
2.99738
2.99737
2.99737
2.99737
2.99736
2.99736
2.99736
2.99735
2.99735
2.99735
2.99734
2.99734
2.99734
2.99734
2.99733
2.99733
2.99733
2.99733
2.99733
2.99733
2.99733
2.99733
2.99733
2.99733
2.99733
2.99733
2.99732
2.99604
2.99604
2.99605
2.99606
2.99607
2.99608
2.99608
2.99608
2.99607
2.99607
2.99607
2.99608
2.99611
2.99615
2.99621
2.99629
2.99639
2.99652
2.99669
2.99689
2.99713
2.99742
2.99776
2.99814
2.99857
2.99905
2.99957
3.00013
3.00071
3.00131
3.0019
3.00247
3.003
3.00349
3.00391
3.00424
3.00449
3.00462
3.00465
3.00457
3.00437
3.00406
3.00364
3.00311
3.0025
3.00181
3.00106
3.00026
2.99942
2.99857
2.99771
2.99685
2.99602
2.99521
2.99444
2.99372
2.99305
2.99244
2.99191
2.99145
2.99107
2.99078
2.99056
2.99043
2.99037
2.99038
2.99046
2.99059
2.99077
2.99098
2.99122
2.99148
2.99174
2.992
2.99225
2.99249
2.99271
2.99291
2.99309
2.99324
2.99337
2.99348
2.99357
2.99365
2.9937
2.99375
2.99379
2.99382
2.99385
2.99389
2.99395
2.99403
2.99414
2.9943
2.99451
2.99479
2.99513
2.99555
2.99603
2.99655
2.9971
2.99764
2.99815
2.99858
2.9989
2.99911
2.9992
2.99918
2.99908
2.99893
2.99876
2.9986
2.99846
2.99834
2.99823
2.99814
2.99804
2.99794
2.99783
2.99772
2.99762
2.99754
2.99749
2.99746
2.99744
2.99743
2.99741
2.99736
2.99729
2.99718
2.99703
2.99686
2.99667
2.99646
2.99626
2.99607
2.9959
2.99578
2.9957
2.99568
2.9957
2.99576
2.99586
2.99596
2.99607
2.99617
2.99625
2.99631
2.99636
2.9964
2.99642
2.99644
2.99646
2.99649
2.99652
2.99656
2.99661
2.99667
2.99672
2.99678
2.99683
2.99688
2.99692
2.99696
2.99699
2.99702
2.99705
2.99708
2.9971
2.99712
2.99714
2.99715
2.99717
2.99719
2.9972
2.99721
2.99723
2.99724
2.99725
2.99727
2.99728
2.99729
2.99731
2.99732
2.99734
2.99735
2.99736
2.99738
2.99739
2.9974
2.99741
2.99742
2.99742
2.99742
2.99742
2.99742
2.99741
2.99741
2.9974
2.99739
2.99738
2.99737
2.99736
2.99735
2.99735
2.99734
2.99733
2.99733
2.99733
2.99733
2.99733
2.99733
2.99734
2.99734
2.99734
2.99735
2.99735
2.99736
2.99736
2.99737
2.99737
2.99738
2.99738
2.99738
2.99738
2.99738
2.99738
2.99738
2.99737
2.99737
2.99737
2.99736
2.99736
2.99736
2.99735
2.99735
2.99735
2.99734
2.99734
2.99734
2.99734
2.99733
2.99733
2.99733
2.99733
2.99733
2.99732
2.99732
2.99732
2.99732
2.99732
2.99732
2.99732
2.99732
2.99732
2.99732
2.99603
2.99604
2.99606
2.99607
2.99609
2.9961
2.9961
2.99611
2.99611
2.99612
2.99613
2.99615
2.99619
2.99624
2.99631
2.99641
2.99653
2.99669
2.99687
2.99709
2.99735
2.99765
2.99799
2.99838
2.99881
2.99928
2.99977
3.0003
3.00083
3.00137
3.00189
3.00239
3.00284
3.00324
3.00358
3.00384
3.00401
3.0041
3.0041
3.004
3.0038
3.00351
3.00313
3.00266
3.00211
3.00149
3.00081
3.00008
2.99932
2.99853
2.99773
2.99692
2.99613
2.99537
2.99463
2.99394
2.99331
2.99273
2.99222
2.99178
2.99142
2.99114
2.99093
2.99079
2.99072
2.99071
2.99075
2.99084
2.99097
2.99113
2.99132
2.99153
2.99175
2.99197
2.9922
2.99242
2.99263
2.99283
2.99301
2.99318
2.99332
2.99344
2.99354
2.99362
2.99368
2.99373
2.99377
2.9938
2.99383
2.99387
2.99392
2.994
2.99411
2.99427
2.99449
2.99478
2.99513
2.99555
2.99603
2.99656
2.99711
2.99765
2.99815
2.99857
2.99889
2.9991
2.99918
2.99916
2.99907
2.99892
2.99876
2.9986
2.99847
2.99836
2.99826
2.99818
2.99809
2.99799
2.99788
2.99777
2.99767
2.99758
2.99751
2.99746
2.99742
2.99739
2.99734
2.99727
2.99718
2.99705
2.99689
2.99671
2.99651
2.99631
2.99612
2.99595
2.99581
2.99572
2.99567
2.99567
2.99572
2.9958
2.9959
2.99602
2.99613
2.99623
2.99631
2.99638
2.99643
2.99646
2.99649
2.99651
2.99654
2.99656
2.99659
2.99662
2.99667
2.99671
2.99675
2.9968
2.99684
2.99688
2.99692
2.99695
2.99698
2.99701
2.99704
2.99707
2.99709
2.99711
2.99713
2.99715
2.99716
2.99718
2.99719
2.99721
2.99722
2.99723
2.99725
2.99726
2.99727
2.99729
2.9973
2.99732
2.99733
2.99735
2.99736
2.99737
2.99738
2.9974
2.9974
2.99741
2.99741
2.99742
2.99742
2.99741
2.99741
2.9974
2.9974
2.99739
2.99738
2.99737
2.99736
2.99735
2.99734
2.99734
2.99733
2.99733
2.99733
2.99733
2.99733
2.99733
2.99734
2.99734
2.99734
2.99735
2.99735
2.99736
2.99736
2.99737
2.99737
2.99737
2.99737
2.99738
2.99738
2.99737
2.99737
2.99737
2.99737
2.99737
2.99736
2.99736
2.99736
2.99735
2.99735
2.99735
2.99734
2.99734
2.99734
2.99733
2.99733
2.99733
2.99733
2.99732
2.99732
2.99732
2.99732
2.99732
2.99732
2.99732
2.99732
2.99732
2.99732
2.99732
2.99732
2.99732
2.99603
2.99604
2.99606
2.99608
2.9961
2.99611
2.99613
2.99614
2.99616
2.99618
2.9962
2.99623
2.99629
2.99635
2.99645
2.99656
2.99671
2.99688
2.99709
2.99733
2.9976
2.99792
2.99827
2.99866
2.99908
2.99953
3
3.00048
3.00095
3.00142
3.00186
3.00227
3.00263
3.00294
3.00318
3.00335
3.00346
3.00349
3.00345
3.00334
3.00315
3.00288
3.00254
3.00213
3.00165
3.00111
3.00051
2.99987
2.99918
2.99847
2.99774
2.997
2.99627
2.99555
2.99487
2.99422
2.99362
2.99308
2.9926
2.99218
2.99184
2.99157
2.99136
2.99121
2.99112
2.99108
2.99109
2.99113
2.99121
2.99131
2.99144
2.9916
2.99177
2.99196
2.99215
2.99235
2.99255
2.99275
2.99293
2.9931
2.99325
2.99338
2.99349
2.99358
2.99364
2.9937
2.99373
2.99376
2.99379
2.99383
2.99389
2.99397
2.99409
2.99425
2.99448
2.99477
2.99512
2.99555
2.99603
2.99656
2.99711
2.99765
2.99814
2.99856
2.99888
2.99908
2.99917
2.99915
2.99905
2.99891
2.99876
2.99861
2.99848
2.99838
2.9983
2.99823
2.99815
2.99805
2.99795
2.99783
2.99772
2.99761
2.99753
2.99746
2.99739
2.99733
2.99726
2.99716
2.99704
2.99689
2.99672
2.99653
2.99633
2.99614
2.99597
2.99582
2.99571
2.99565
2.99564
2.99567
2.99574
2.99585
2.99596
2.99609
2.9962
2.9963
2.99638
2.99645
2.9965
2.99654
2.99657
2.9966
2.99662
2.99664
2.99667
2.9967
2.99673
2.99676
2.99679
2.99682
2.99685
2.99688
2.99692
2.99695
2.99698
2.997
2.99703
2.99706
2.99708
2.9971
2.99712
2.99714
2.99715
2.99717
2.99718
2.9972
2.99721
2.99722
2.99724
2.99725
2.99727
2.99728
2.99729
2.99731
2.99732
2.99734
2.99735
2.99737
2.99738
2.99739
2.9974
2.9974
2.99741
2.99741
2.99741
2.99741
2.99741
2.9974
2.99739
2.99739
2.99738
2.99737
2.99736
2.99735
2.99734
2.99734
2.99733
2.99733
2.99733
2.99733
2.99733
2.99733
2.99733
2.99734
2.99734
2.99735
2.99735
2.99736
2.99736
2.99736
2.99737
2.99737
2.99737
2.99737
2.99737
2.99737
2.99737
2.99737
2.99736
2.99736
2.99736
2.99735
2.99735
2.99735
2.99734
2.99734
2.99734
2.99733
2.99733
2.99733
2.99733
2.99732
2.99732
2.99732
2.99732
2.99732
2.99731
2.99731
2.99731
2.99731
2.99731
2.99731
2.99731
2.99731
2.99731
2.99731
2.99602
2.99603
2.99605
2.99608
2.9961
2.99613
2.99616
2.99618
2.99621
2.99624
2.99628
2.99633
2.9964
2.99649
2.9966
2.99674
2.99691
2.9971
2.99733
2.9976
2.99789
2.99822
2.99858
2.99896
2.99937
2.99979
3.00022
3.00065
3.00106
3.00145
3.0018
3.00211
3.00237
3.00257
3.00272
3.00281
3.00284
3.00282
3.00274
3.00261
3.00242
3.00219
3.00189
3.00154
3.00114
3.00068
3.00017
2.99961
2.99901
2.99838
2.99774
2.99707
2.99641
2.99576
2.99513
2.99453
2.99398
2.99348
2.99303
2.99265
2.99232
2.99206
2.99185
2.99169
2.99157
2.9915
2.99146
2.99145
2.99147
2.99152
2.99159
2.99169
2.99181
2.99196
2.99212
2.99229
2.99248
2.99266
2.99284
2.99301
2.99317
2.99331
2.99342
2.99352
2.99359
2.99365
2.99369
2.99372
2.99376
2.9938
2.99385
2.99394
2.99406
2.99423
2.99446
2.99476
2.99512
2.99555
2.99603
2.99656
2.99711
2.99764
2.99813
2.99855
2.99886
2.99906
2.99915
2.99914
2.99905
2.99891
2.99876
2.99862
2.99851
2.99842
2.99835
2.99828
2.99821
2.99812
2.99801
2.99789
2.99777
2.99765
2.99754
2.99744
2.99735
2.99725
2.99715
2.99702
2.99688
2.99671
2.99652
2.99633
2.99613
2.99596
2.9958
2.99569
2.99561
2.99559
2.99561
2.99568
2.99578
2.9959
2.99603
2.99616
2.99628
2.99638
2.99646
2.99652
2.99657
2.99662
2.99665
2.99668
2.99671
2.99673
2.99675
2.99677
2.99679
2.99681
2.99683
2.99685
2.99687
2.9969
2.99692
2.99694
2.99697
2.997
2.99702
2.99705
2.99707
2.99709
2.99711
2.99713
2.99715
2.99716
2.99717
2.99719
2.9972
2.99721
2.99723
2.99724
2.99726
2.99727
2.99729
2.9973
2.99732
2.99733
2.99734
2.99736
2.99737
2.99738
2.99739
2.9974
2.9974
2.9974
2.9974
2.9974
2.9974
2.9974
2.99739
2.99738
2.99737
2.99737
2.99736
2.99735
2.99734
2.99734
2.99733
2.99733
2.99733
2.99733
2.99733
2.99733
2.99733
2.99734
2.99734
2.99734
2.99735
2.99735
2.99736
2.99736
2.99736
2.99737
2.99737
2.99737
2.99737
2.99737
2.99736
2.99736
2.99736
2.99736
2.99735
2.99735
2.99735
2.99734
2.99734
2.99734
2.99733
2.99733
2.99733
2.99732
2.99732
2.99732
2.99732
2.99731
2.99731
2.99731
2.99731
2.99731
2.99731
2.99731
2.99731
2.99731
2.99731
2.99731
2.99731
2.99731
2.99601
2.99602
2.99605
2.99608
2.99611
2.99614
2.99618
2.99622
2.99626
2.99631
2.99636
2.99644
2.99653
2.99664
2.99678
2.99694
2.99714
2.99736
2.99761
2.9979
2.99821
2.99855
2.99891
2.99928
2.99967
3.00006
3.00044
3.00081
3.00114
3.00144
3.0017
3.0019
3.00205
3.00216
3.00221
3.00221
3.00217
3.00209
3.00198
3.00184
3.00166
3.00144
3.00119
3.0009
3.00057
3.00019
2.99977
2.99931
2.99881
2.99828
2.99772
2.99714
2.99656
2.99599
2.99542
2.99489
2.99439
2.99393
2.99352
2.99316
2.99285
2.99259
2.99238
2.9922
2.99206
2.99195
2.99186
2.9918
2.99176
2.99175
2.99177
2.99182
2.99189
2.99199
2.99211
2.99226
2.99242
2.99258
2.99276
2.99292
2.99308
2.99322
2.99335
2.99345
2.99353
2.99359
2.99364
2.99368
2.99371
2.99376
2.99382
2.99391
2.99403
2.99421
2.99445
2.99474
2.99511
2.99554
2.99603
2.99655
2.9971
2.99763
2.99812
2.99853
2.99884
2.99905
2.99914
2.99913
2.99904
2.99891
2.99877
2.99865
2.99854
2.99846
2.9984
2.99834
2.99827
2.99819
2.99808
2.99795
2.99781
2.99767
2.99753
2.99741
2.99728
2.99716
2.99702
2.99687
2.99669
2.9965
2.9963
2.99611
2.99592
2.99576
2.99563
2.99555
2.99551
2.99553
2.99559
2.9957
2.99583
2.99597
2.99611
2.99624
2.99636
2.99645
2.99653
2.9966
2.99665
2.99669
2.99673
2.99677
2.9968
2.99682
2.99684
2.99685
2.99687
2.99687
2.99688
2.99689
2.9969
2.99691
2.99693
2.99695
2.99697
2.99699
2.99702
2.99704
2.99706
2.99708
2.9971
2.99712
2.99714
2.99715
2.99716
2.99718
2.99719
2.9972
2.99722
2.99723
2.99724
2.99726
2.99727
2.99729
2.9973
2.99732
2.99733
2.99735
2.99736
2.99737
2.99738
2.99739
2.99739
2.9974
2.9974
2.9974
2.9974
2.99739
2.99739
2.99738
2.99737
2.99736
2.99735
2.99735
2.99734
2.99733
2.99733
2.99733
2.99732
2.99732
2.99732
2.99733
2.99733
2.99733
2.99734
2.99734
2.99735
2.99735
2.99735
2.99736
2.99736
2.99736
2.99736
2.99736
2.99736
2.99736
2.99736
2.99736
2.99736
2.99735
2.99735
2.99735
2.99734
2.99734
2.99733
2.99733
2.99733
2.99732
2.99732
2.99732
2.99732
2.99731
2.99731
2.99731
2.99731
2.99731
2.9973
2.9973
2.9973
2.9973
2.9973
2.9973
2.9973
2.9973
2.9973
2.9973
2.99599
2.99601
2.99604
2.99607
2.99611
2.99616
2.99621
2.99626
2.99632
2.99638
2.99646
2.99656
2.99667
2.99681
2.99698
2.99717
2.99739
2.99764
2.99792
2.99822
2.99855
2.99889
2.99925
2.99961
2.99997
3.00031
3.00064
3.00093
3.00118
3.00139
3.00154
3.00164
3.00169
3.00169
3.00165
3.00158
3.00147
3.00134
3.0012
3.00104
3.00086
3.00067
3.00046
3.00023
2.99997
2.99968
2.99935
2.99898
2.99858
2.99815
2.99769
2.99721
2.99672
2.99622
2.99574
2.99527
2.99483
2.99442
2.99405
2.99372
2.99342
2.99317
2.99294
2.99274
2.99257
2.99241
2.99228
2.99217
2.99208
2.99202
2.99198
2.99197
2.99199
2.99205
2.99213
2.99224
2.99238
2.99252
2.99268
2.99284
2.99299
2.99313
2.99326
2.99336
2.99345
2.99352
2.99357
2.99362
2.99366
2.99371
2.99378
2.99388
2.99401
2.99419
2.99443
2.99473
2.9951
2.99553
2.99602
2.99654
2.99708
2.99761
2.99809
2.99851
2.99882
2.99903
2.99912
2.99912
2.99904
2.99892
2.9988
2.99868
2.99858
2.99851
2.99846
2.99841
2.99834
2.99826
2.99814
2.998
2.99784
2.99768
2.99751
2.99736
2.9972
2.99704
2.99687
2.99669
2.99649
2.99628
2.99607
2.99588
2.9957
2.99556
2.99547
2.99542
2.99543
2.99549
2.99559
2.99573
2.99588
2.99605
2.9962
2.99633
2.99644
2.99653
2.99661
2.99667
2.99672
2.99677
2.99681
2.99685
2.99688
2.99691
2.99693
2.99694
2.99694
2.99694
2.99693
2.99693
2.99693
2.99693
2.99694
2.99696
2.99697
2.99699
2.99701
2.99704
2.99706
2.99708
2.99709
2.99711
2.99713
2.99714
2.99715
2.99717
2.99718
2.99719
2.9972
2.99722
2.99723
2.99725
2.99726
2.99728
2.99729
2.99731
2.99732
2.99734
2.99735
2.99736
2.99737
2.99738
2.99739
2.99739
2.99739
2.99739
2.99739
2.99739
2.99738
2.99737
2.99737
2.99736
2.99735
2.99734
2.99734
2.99733
2.99733
2.99732
2.99732
2.99732
2.99732
2.99732
2.99732
2.99733
2.99733
2.99734
2.99734
2.99734
2.99735
2.99735
2.99735
2.99736
2.99736
2.99736
2.99736
2.99736
2.99736
2.99735
2.99735
2.99735
2.99734
2.99734
2.99734
2.99733
2.99733
2.99733
2.99732
2.99732
2.99732
2.99731
2.99731
2.99731
2.99731
2.9973
2.9973
2.9973
2.9973
2.9973
2.9973
2.9973
2.9973
2.9973
2.99729
2.99729
2.99729
2.99729
2.99598
2.996
2.99603
2.99607
2.99612
2.99618
2.99624
2.99631
2.99638
2.99647
2.99657
2.99669
2.99684
2.997
2.9972
2.99742
2.99767
2.99795
2.99824
2.99856
2.9989
2.99924
2.99958
2.99992
3.00024
3.00053
3.00079
3.001
3.00117
3.00128
3.00133
3.00133
3.00128
3.00119
3.00106
3.00092
3.00075
3.00058
3.00041
3.00023
3.00006
2.99989
2.99972
2.99954
2.99935
2.99913
2.99889
2.99862
2.99832
2.99799
2.99764
2.99726
2.99687
2.99647
2.99607
2.99568
2.9953
2.99495
2.99461
2.99431
2.99402
2.99376
2.99352
2.9933
2.99309
2.9929
2.99272
2.99256
2.99242
2.9923
2.99222
2.99216
2.99213
2.99214
2.99219
2.99226
2.99236
2.99248
2.99262
2.99276
2.9929
2.99304
2.99316
2.99327
2.99336
2.99343
2.9935
2.99355
2.9936
2.99366
2.99374
2.99384
2.99399
2.99417
2.99442
2.99472
2.99509
2.99552
2.996
2.99652
2.99706
2.99758
2.99806
2.99848
2.99879
2.999
2.99911
2.99911
2.99905
2.99894
2.99883
2.99872
2.99863
2.99857
2.99852
2.99848
2.99841
2.99832
2.99819
2.99804
2.99786
2.99767
2.99748
2.99728
2.99709
2.9969
2.9967
2.99649
2.99627
2.99605
2.99584
2.99565
2.99549
2.99537
2.99531
2.99531
2.99536
2.99546
2.9956
2.99577
2.99595
2.99613
2.99629
2.99642
2.99652
2.99661
2.99668
2.99673
2.99679
2.99684
2.99689
2.99693
2.99697
2.99699
2.99701
2.99702
2.99702
2.99701
2.99699
2.99698
2.99697
2.99696
2.99697
2.99697
2.99699
2.997
2.99702
2.99704
2.99705
2.99707
2.99709
2.9971
2.99712
2.99713
2.99714
2.99715
2.99716
2.99718
2.99719
2.9972
2.99722
2.99723
2.99725
2.99726
2.99728
2.99729
2.99731
2.99732
2.99733
2.99735
2.99736
2.99737
2.99738
2.99738
2.99738
2.99739
2.99738
2.99738
2.99738
2.99737
2.99736
2.99736
2.99735
2.99734
2.99733
2.99733
2.99732
2.99732
2.99732
2.99731
2.99731
2.99732
2.99732
2.99732
2.99733
2.99733
2.99734
2.99734
2.99734
2.99735
2.99735
2.99735
2.99735
2.99735
2.99735
2.99735
2.99735
2.99735
2.99735
2.99734
2.99734
2.99734
2.99733
2.99733
2.99732
2.99732
2.99732
2.99731
2.99731
2.99731
2.9973
2.9973
2.9973
2.9973
2.9973
2.99729
2.99729
2.99729
2.99729
2.99729
2.99729
2.99729
2.99729
2.99729
2.99729
2.99729
2.99597
2.99599
2.99602
2.99607
2.99613
2.9962
2.99628
2.99636
2.99646
2.99657
2.9967
2.99685
2.99702
2.99722
2.99744
2.9977
2.99797
2.99827
2.99859
2.99892
2.99925
2.99958
2.99991
3.00021
3.00048
3.00071
3.00089
3.00102
3.00109
3.00111
3.00106
3.00097
3.00083
3.00065
3.00045
3.00024
3.00003
2.99982
2.99962
2.99944
2.99927
2.99912
2.99898
2.99885
2.99871
2.99857
2.99841
2.99824
2.99804
2.99781
2.99757
2.9973
2.99701
2.99671
2.9964
2.99609
2.99579
2.99549
2.9952
2.99491
2.99464
2.99437
2.99411
2.99386
2.99362
2.99339
2.99317
2.99296
2.99278
2.99262
2.99248
2.99238
2.99231
2.99228
2.99228
2.99232
2.99238
2.99247
2.99257
2.99269
2.99282
2.99294
2.99305
2.99316
2.99326
2.99334
2.99341
2.99348
2.99354
2.99361
2.9937
2.99381
2.99396
2.99415
2.9944
2.9947
2.99507
2.9955
2.99598
2.99649
2.99702
2.99755
2.99803
2.99844
2.99876
2.99898
2.99909
2.99911
2.99906
2.99897
2.99887
2.99877
2.99869
2.99864
2.99859
2.99854
2.99848
2.99837
2.99823
2.99806
2.99786
2.99764
2.99741
2.99719
2.99696
2.99674
2.99651
2.99627
2.99603
2.99581
2.99559
2.99542
2.99528
2.99519
2.99517
2.99521
2.9953
2.99545
2.99563
2.99583
2.99603
2.99622
2.99638
2.99651
2.9966
2.99668
2.99674
2.99679
2.99685
2.9969
2.99695
2.997
2.99704
2.99707
2.99709
2.9971
2.99709
2.99708
2.99705
2.99703
2.99701
2.997
2.997
2.997
2.997
2.99701
2.99703
2.99704
2.99705
2.99707
2.99708
2.99709
2.99711
2.99712
2.99713
2.99714
2.99715
2.99716
2.99717
2.99719
2.9972
2.99721
2.99723
2.99724
2.99726
2.99727
2.99729
2.99731
2.99732
2.99733
2.99735
2.99736
2.99737
2.99737
2.99738
2.99738
2.99738
2.99738
2.99737
2.99736
2.99736
2.99735
2.99734
2.99733
2.99733
2.99732
2.99732
2.99731
2.99731
2.99731
2.99731
2.99731
2.99731
2.99732
2.99732
2.99732
2.99733
2.99733
2.99734
2.99734
2.99734
2.99735
2.99735
2.99735
2.99735
2.99735
2.99735
2.99734
2.99734
2.99734
2.99733
2.99733
2.99733
2.99732
2.99732
2.99732
2.99731
2.99731
2.9973
2.9973
2.9973
2.9973
2.99729
2.99729
2.99729
2.99729
2.99729
2.99729
2.99728
2.99728
2.99728
2.99728
2.99728
2.99728
2.99728
2.99728
2.99596
2.99599
2.99603
2.99608
2.99615
2.99623
2.99633
2.99644
2.99656
2.99669
2.99685
2.99703
2.99723
2.99746
2.99771
2.99799
2.99829
2.99861
2.99894
2.99927
2.9996
2.99991
3.0002
3.00046
3.00067
3.00083
3.00093
3.00097
3.00095
3.00087
3.00074
3.00056
3.00034
3.00009
2.99983
2.99957
2.99931
2.99907
2.99885
2.99866
2.9985
2.99837
2.99826
2.99817
2.99808
2.99801
2.99793
2.99784
2.99774
2.99762
2.99748
2.99732
2.99714
2.99695
2.99674
2.99651
2.99628
2.99603
2.99578
2.99552
2.99525
2.99498
2.99471
2.99443
2.99416
2.99389
2.99363
2.99339
2.99316
2.99296
2.99278
2.99264
2.99253
2.99245
2.99241
2.99241
2.99243
2.99248
2.99255
2.99264
2.99274
2.99285
2.99295
2.99305
2.99315
2.99324
2.99332
2.9934
2.99347
2.99356
2.99366
2.99378
2.99394
2.99413
2.99438
2.99469
2.99505
2.99547
2.99595
2.99646
2.99699
2.99751
2.99799
2.9984
2.99873
2.99896
2.99909
2.99912
2.99909
2.99901
2.99892
2.99883
2.99876
2.99871
2.99866
2.99861
2.99853
2.99842
2.99826
2.99806
2.99783
2.99758
2.99733
2.99707
2.99681
2.99655
2.9963
2.99604
2.99579
2.99556
2.99536
2.99519
2.99508
2.99503
2.99505
2.99513
2.99527
2.99546
2.99567
2.9959
2.99612
2.99631
2.99647
2.99659
2.99668
2.99674
2.99679
2.99685
2.9969
2.99695
2.99701
2.99707
2.99711
2.99715
2.99717
2.99717
2.99716
2.99714
2.99712
2.99709
2.99706
2.99704
2.99703
2.99703
2.99703
2.99703
2.99704
2.99705
2.99706
2.99707
2.99708
2.99709
2.9971
2.99711
2.99712
2.99713
2.99714
2.99715
2.99716
2.99717
2.99718
2.9972
2.99721
2.99723
2.99724
2.99726
2.99727
2.99729
2.9973
2.99732
2.99733
2.99735
2.99735
2.99736
2.99737
2.99737
2.99737
2.99737
2.99736
2.99736
2.99735
2.99734
2.99734
2.99733
2.99732
2.99731
2.99731
2.99731
2.9973
2.9973
2.9973
2.9973
2.99731
2.99731
2.99731
2.99732
2.99732
2.99733
2.99733
2.99734
2.99734
2.99734
2.99734
2.99734
2.99734
2.99734
2.99734
2.99734
2.99734
2.99733
2.99733
2.99733
2.99732
2.99732
2.99731
2.99731
2.99731
2.9973
2.9973
2.9973
2.99729
2.99729
2.99729
2.99729
2.99728
2.99728
2.99728
2.99728
2.99728
2.99728
2.99728
2.99728
2.99728
2.99728
2.99728
2.99728
2.99597
2.996
2.99604
2.99611
2.99619
2.99629
2.9964
2.99653
2.99667
2.99684
2.99702
2.99723
2.99746
2.99772
2.99801
2.99831
2.99863
2.99896
2.99929
2.99962
2.99993
3.00021
3.00045
3.00065
3.0008
3.00088
3.0009
3.00086
3.00075
3.00058
3.00037
3.00011
2.99982
2.99951
2.9992
2.9989
2.99861
2.99834
2.99811
2.99792
2.99776
2.99764
2.99756
2.9975
2.99747
2.99745
2.99744
2.99744
2.99743
2.99741
2.99738
2.99733
2.99726
2.99717
2.99706
2.99692
2.99675
2.99656
2.99635
2.99611
2.99586
2.99558
2.99529
2.99499
2.99469
2.99439
2.9941
2.99382
2.99356
2.99332
2.99311
2.99293
2.99278
2.99267
2.99258
2.99253
2.99251
2.99252
2.99256
2.99261
2.99268
2.99276
2.99285
2.99295
2.99304
2.99313
2.99322
2.99331
2.9934
2.9935
2.99361
2.99374
2.99391
2.99411
2.99436
2.99466
2.99502
2.99544
2.99591
2.99642
2.99694
2.99746
2.99794
2.99836
2.9987
2.99894
2.99908
2.99913
2.99911
2.99905
2.99897
2.9989
2.99883
2.99878
2.99873
2.99867
2.99858
2.99845
2.99826
2.99804
2.99778
2.9975
2.99721
2.99692
2.99664
2.99635
2.99608
2.99581
2.99555
2.99532
2.99513
2.99499
2.99491
2.99489
2.99495
2.99508
2.99526
2.99549
2.99574
2.99599
2.99622
2.99641
2.99656
2.99667
2.99674
2.9968
2.99684
2.99689
2.99694
2.997
2.99706
2.99712
2.99717
2.99721
2.99723
2.99724
2.99723
2.99721
2.99718
2.99714
2.99712
2.99709
2.99708
2.99706
2.99706
2.99706
2.99706
2.99706
2.99707
2.99707
2.99708
2.99709
2.9971
2.9971
2.99711
2.99712
2.99713
2.99713
2.99714
2.99715
2.99716
2.99718
2.99719
2.99721
2.99722
2.99724
2.99725
2.99727
2.99729
2.9973
2.99732
2.99733
2.99734
2.99735
2.99736
2.99736
2.99736
2.99736
2.99736
2.99735
2.99734
2.99734
2.99733
2.99732
2.99731
2.99731
2.9973
2.9973
2.9973
2.99729
2.9973
2.9973
2.9973
2.9973
2.99731
2.99731
2.99732
2.99732
2.99733
2.99733
2.99733
2.99733
2.99734
2.99734
2.99734
2.99734
2.99733
2.99733
2.99733
2.99733
2.99732
2.99732
2.99732
2.99731
2.99731
2.9973
2.9973
2.9973
2.99729
2.99729
2.99729
2.99728
2.99728
2.99728
2.99728
2.99728
2.99728
2.99727
2.99727
2.99727
2.99727
2.99727
2.99727
2.99727
2.99727
2.99727
2.99599
2.99602
2.99607
2.99615
2.99624
2.99635
2.99649
2.99664
2.99681
2.997
2.99722
2.99746
2.99772
2.99801
2.99832
2.99864
2.99897
2.99931
2.99963
2.99994
3.00022
3.00046
3.00066
3.00079
3.00086
3.00087
3.0008
3.00067
3.00048
3.00024
2.99995
2.99963
2.99928
2.99893
2.99858
2.99824
2.99793
2.99765
2.99741
2.99721
2.99706
2.99696
2.99689
2.99687
2.99688
2.99691
2.99697
2.99704
2.99712
2.9972
2.99727
2.99733
2.99737
2.99738
2.99736
2.9973
2.9972
2.99707
2.99689
2.99668
2.99643
2.99616
2.99586
2.99555
2.99522
2.9949
2.99458
2.99427
2.99398
2.99372
2.99347
2.99326
2.99307
2.99292
2.99279
2.9927
2.99263
2.9926
2.99259