# vtk DataFile Version 2.0
HPC Tutorials: Michael Bader, Kaveh Rahnema, Oliver Meister
ASCII
DATASET RECTILINEAR_GRID
DIMENSIONS 257 257 1
X_COORDINATES 257 float
0
0.005
0.01
0.015
0.02
0.025
0.03
0.035
0.04
0.045
0.05
0.055
0.06
0.065
0.07
0.075
0.08
0.085
0.09
0.095
0.1
0.105
0.11
0.115
0.12
0.125
0.13
0.135
0.14
0.145
0.15
0.155
0.16
0.165
0.17
0.175
0.18
0.185
0.19
0.195
0.2
0.205
0.21
0.215
0.22
0.225
0.23
0.235
0.24
0.245
0.25
0.255
0.26
0.265
0.27
0.275
0.28
0.285
0.29
0.295
0.3
0.305
0.31
0.315
0.32
0.325
0.33
0.335
0.34
0.345
0.35
0.355
0.36
0.365
0.37
0.375
0.38
0.385
0.39
0.395
0.4
0.405
0.41
0.415
0.42
0.425
0.43
0.435
0.44
0.445
0.45
0.455
0.46
0.465
0.47
0.475
0.48
0.485
0.49
0.495
0.5
0.505
0.51
0.515
0.52
0.525
0.53
0.535
0.54
0.545
0.55
0.555
0.56
0.565
0.57
0.575
0.58
0.585
0.59
0.595
0.6
0.605
0.61
0.615
0.62
0.625
0.63
0.635
0.64
0.645
0.65
0.655
0.66
0.665
0.67
0.675
0.68
0.685
0.69
0.695
0.7
0.705
0.71
0.715
0.72
0.725
0.73
0.735
0.74
0.745
0.75
0.755
0.76
0.765
0.77
0.775
0.78
0.785
0.79
0.795
0.8
0.805
0.81
0.815
0.82
0.825
0.83
0.835
0.84
0.845
0.85
0.855
0.86
0.865
0.87
0.875
0.88
0.885
0.89
0.895
0.9
0.905
0.91
0.915
0.92
0.925
0.93
0.935
0.94
0.945
0.95
0.955
0.96
0.965
0.97
0.975
0.98
0.985
0.99
0.995
1
1.005
1.01
1.015
1.02
1.025
1.03
1.035
1.04
1.045
1.05
1.055
1.06
1.065
1.07
1.075
1.08
1.085
1.09
1.095
1.1
1.105
1.11
1.115
1.12
1.125
1.13
1.135
1.14
1.145
1.15
1.155
1.16
1.165
1.17
1.175
1.18
1.185
1.19
1.195
1.2
1.205
1.21
1.215
1.22
1.225
1.23
1.235
1.24
1.245
1.25
1.255
1.26
1.265
1.27
1.275
1.28
Y_COORDINATES 257 float
0
0.005
0.01
0.015
0.02
0.025
0.03
0.035
0.04
0.045
0.05
0.055
0.06
0.065
0.07
0.075
0.08
0.085
0.09
0.095
0.1
0.105
0.11
0.115
0.12
0.125
0.13
0.135
0.14
0.145
0.15
0.155
0.16
0.165
0.17
0.175
0.18
0.185
0.19
0.195
0.2
0.205
0.21
0.215
0.22
0.225
0.23
0.235
0.24
0.245
0.25
0.255
0.26
0.265
0.27
0.275
0.28
0.285
0.29
0.295
0.3
0.305
0.31
0.315
0.32
0.325
0.33
0.335
0.34
0.345
0.35
0.355
0.36
0.365
0.37
0.375
0.38
0.385
0.39
0.395
0.4
0.405
0.41
0.415
0.42
0.425
0.43
0.435
0.44
0.445
0.45
0.455
0.46
0.465
0.47
0.475
0.48
0.485
0.49
0.495
0.5
0.505
0.51
0.515
0.52
0.525
0.53
0.535
0.54
0.545
0.55
0.555
0.56
0.565
0.57
0.575
0.58
0.585
0.59
0.595
0.6
0.605
0.61
0.615
0.62
0.625
0.63
0.635
0.64
0.645
0.65
0.655
0.66
0.665
0.67
0.675
0.68
0.685
0.69
0.695
0.7
0.705
0.71
0.715
0.72
0.725
0.73
0.735
0.74
0.745
0.75
0.755
0.76
0.765
0.77
0.775
0.78
0.785
0.79
0.795
0.8
0.805
0.81
0.815
0.82
0.825
0.83
0.835
0.84
0.845
0.85
0.855
0.86
0.865
0.87
0.875
0.88
0.885
0.89
0.895
0.9
0.905
0.91
0.915
0.92
0.925
0.93
0.935
0.94
0.945
0.95
0.955
0.96
0.965
0.97
0.975
0.98
0.985
0.99
0.995
1
1.005
1.01
1.015
1.02
1.025
1.03
1.035
1.04
1.045
1.05
1.055
1.06
1.065
1.07
1.075
1.08
1.085
1.09
1.095
1.1
1.105
1.11
1.115
1.12
1.125
1.13
1.135
1.14
1.145
1.15
1.155
1.16
1.165
1.17
1.175
1.18
1.185
1.19
1.195
1.2
1.205
1.21
1.215
1.22
1.225
1.23
1.235
1.24
1.245
1.25
1.255
1.26
1.265
1.27
1.275
1.28
Z_COORDINATES 1 float
0
CELL_DATA 65536
SCALARS H float 1
LOOKUP_TABLE default
2.99736
2.99741
2.99749
2.99759
2.99771
2.99784
2.99798
2.9981
2.99821
2.99831
2.99838
2.99842
2.99844
2.99843
2.9984
2.99836
2.9983
2.99824
2.99818
2.99813
2.99808
2.99805
2.99802
2.998
2.99799
2.99797
2.99796
2.99794
2.99791
2.99788
2.99785
2.99781
2.99778
2.99775
2.99772
2.99769
2.99768
2.99767
2.99766
2.99766
2.99767
2.99768
2.99769
2.9977
2.9977
2.9977
2.99768
2.99765
2.99761
2.99755
2.99748
2.99741
2.99733
2.99726
2.99721
2.99717
2.99716
2.99717
2.9972
2.99726
2.99733
2.99741
2.99749
2.99757
2.99764
2.99771
2.99776
2.9978
2.99784
2.99787
2.9979
2.99793
2.99795
2.99797
2.99798
2.99798
2.99796
2.99792
2.99786
2.99779
2.9977
2.99761
2.99751
2.99742
2.99733
2.99724
2.99717
2.99711
2.99706
2.99702
2.997
2.997
2.99701
2.99703
2.99707
2.99712
2.99719
2.99727
2.99735
2.99743
2.99751
2.99759
2.99767
2.99773
2.99779
2.99784
2.99789
2.99792
2.99795
2.99798
2.99799
2.998
2.998
2.99799
2.99796
2.99794
2.9979
2.99788
2.99786
2.99787
2.9979
2.99797
2.99808
2.99823
2.99844
2.99872
2.99906
2.99947
2.99995
3.00051
3.00113
3.00182
3.00257
3.00336
3.00418
3.00499
3.00577
3.00648
3.0071
3.00759
3.00791
3.00804
3.00798
3.0077
3.00722
3.00655
3.00572
3.00474
3.00365
3.00249
3.00128
3.00006
2.99884
2.99765
2.9965
2.99539
2.99433
2.99333
2.9924
2.99153
2.99075
2.99006
2.98949
2.98905
2.98875
2.98864
2.98871
2.98899
2.98948
2.99017
2.99104
2.99203
2.9931
2.99417
2.99517
2.99602
2.99668
2.99712
2.99737
2.99745
2.99742
2.99734
2.99725
2.99718
2.99714
2.99711
2.99709
2.99705
2.99698
2.99688
2.99676
2.99661
2.99644
2.99625
2.99606
2.99588
2.99571
2.99557
2.99547
2.9954
2.99536
2.99537
2.9954
2.99545
2.99552
2.99561
2.99571
2.99581
2.99591
2.99601
2.99611
2.99621
2.99631
2.9964
2.99649
2.99657
2.99666
2.99673
2.99681
2.99687
2.99693
2.99698
2.99702
2.99706
2.99709
2.99711
2.99713
2.99714
2.99715
2.99715
2.99716
2.99716
2.99717
2.99717
2.99718
2.99719
2.9972
2.99721
2.99722
2.99723
2.99723
2.99724
2.99724
2.99724
2.99724
2.99724
2.99723
2.99723
2.99722
2.99721
2.99721
2.9972
2.99719
2.99719
2.99719
2.99719
2.99741
2.99745
2.99752
2.99762
2.99773
2.99785
2.99797
2.99808
2.99819
2.99827
2.99834
2.99838
2.9984
2.99839
2.99837
2.99833
2.99829
2.99823
2.99818
2.99814
2.99809
2.99806
2.99804
2.99802
2.998
2.99798
2.99796
2.99794
2.99791
2.99788
2.99784
2.99781
2.99777
2.99775
2.99772
2.9977
2.99769
2.99768
2.99768
2.99768
2.99768
2.99769
2.99769
2.9977
2.99769
2.99768
2.99766
2.99763
2.99758
2.99753
2.99747
2.9974
2.99733
2.99727
2.99723
2.9972
2.99719
2.99721
2.99724
2.99729
2.99735
2.99742
2.9975
2.99757
2.99764
2.99769
2.99774
2.99779
2.99782
2.99785
2.99788
2.99791
2.99794
2.99796
2.99797
2.99796
2.99794
2.99791
2.99785
2.99778
2.9977
2.9976
2.99751
2.99742
2.99733
2.99725
2.99718
2.99712
2.99708
2.99704
2.99702
2.99702
2.99703
2.99705
2.99709
2.99714
2.9972
2.99727
2.99735
2.99743
2.99751
2.99759
2.99766
2.99773
2.99778
2.99783
2.99788
2.99791
2.99794
2.99797
2.99798
2.99799
2.99799
2.99798
2.99796
2.99793
2.99791
2.99789
2.99788
2.9979
2.99794
2.99802
2.99814
2.99831
2.99853
2.99881
2.99916
2.99957
3.00005
3.00061
3.00122
3.0019
3.00264
3.0034
3.00419
3.00496
3.0057
3.00637
3.00694
3.00739
3.00767
3.00778
3.0077
3.00743
3.00696
3.00631
3.00551
3.00457
3.00353
3.00241
3.00124
3.00005
2.99887
2.9977
2.99657
2.99547
2.99442
2.99343
2.9925
2.99164
2.99087
2.99019
2.98963
2.9892
2.98892
2.98881
2.98888
2.98916
2.98963
2.99029
2.99112
2.99208
2.99311
2.99414
2.99511
2.99594
2.99659
2.99704
2.9973
2.9974
2.99739
2.99732
2.99725
2.99719
2.99715
2.99713
2.9971
2.99705
2.99697
2.99686
2.99673
2.99657
2.9964
2.99621
2.99603
2.99586
2.9957
2.99557
2.99548
2.99542
2.99539
2.9954
2.99543
2.99548
2.99555
2.99564
2.99573
2.99583
2.99592
2.99602
2.99612
2.99621
2.9963
2.99639
2.99648
2.99656
2.99664
2.99671
2.99679
2.99685
2.99691
2.99696
2.997
2.99704
2.99706
2.99709
2.9971
2.99712
2.99712
2.99713
2.99714
2.99715
2.99715
2.99716
2.99717
2.99718
2.99719
2.9972
2.99721
2.99722
2.99723
2.99724
2.99724
2.99724
2.99724
2.99724
2.99724
2.99723
2.99723
2.99722
2.99721
2.99721
2.9972
2.9972
2.99719
2.99719
2.99749
2.99752
2.99758
2.99766
2.99776
2.99786
2.99796
2.99806
2.99814
2.99822
2.99828
2.99831
2.99833
2.99833
2.99832
2.99829
2.99826
2.99822
2.99818
2.99814
2.99811
2.99808
2.99806
2.99803
2.99801
2.99799
2.99797
2.99794
2.99791
2.99787
2.99784
2.9978
2.99777
2.99775
2.99773
2.99772
2.99771
2.99771
2.99771
2.9977
2.9977
2.9977
2.9977
2.99769
2.99767
2.99765
2.99762
2.99759
2.99755
2.9975
2.99745
2.99739
2.99734
2.9973
2.99727
2.99725
2.99725
2.99726
2.99729
2.99733
2.99739
2.99745
2.99751
2.99757
2.99762
2.99767
2.99772
2.99776
2.99779
2.99782
2.99785
2.99788
2.99791
2.99793
2.99794
2.99794
2.99792
2.99789
2.99784
2.99777
2.99769
2.9976
2.99751
2.99742
2.99734
2.99727
2.9972
2.99715
2.99711
2.99708
2.99706
2.99705
2.99706
2.99708
2.99711
2.99716
2.99721
2.99728
2.99735
2.99743
2.9975
2.99758
2.99765
2.99771
2.99777
2.99782
2.99786
2.9979
2.99793
2.99795
2.99796
2.99797
2.99797
2.99796
2.99795
2.99793
2.99792
2.99791
2.99792
2.99796
2.99802
2.99811
2.99825
2.99843
2.99867
2.99896
2.99932
2.99973
3.00022
3.00076
3.00137
3.00202
3.00272
3.00345
3.00418
3.00489
3.00556
3.00616
3.00667
3.00705
3.00729
3.00736
3.00727
3.007
3.00655
3.00595
3.0052
3.00432
3.00335
3.0023
3.0012
3.00007
2.99892
2.99779
2.99668
2.9956
2.99456
2.99358
2.99266
2.99181
2.99106
2.9904
2.98986
2.98945
2.98919
2.98908
2.98915
2.98941
2.98984
2.99046
2.99123
2.99212
2.99309
2.99408
2.995
2.99582
2.99646
2.99692
2.9972
2.99733
2.99735
2.99731
2.99726
2.99721
2.99717
2.99714
2.9971
2.99704
2.99695
2.99682
2.99667
2.99651
2.99633
2.99616
2.99598
2.99583
2.99569
2.99558
2.9955
2.99545
2.99544
2.99545
2.99548
2.99553
2.9956
2.99568
2.99576
2.99585
2.99594
2.99603
2.99612
2.99621
2.99629
2.99637
2.99646
2.99654
2.99661
2.99669
2.99676
2.99682
2.99687
2.99692
2.99697
2.997
2.99703
2.99705
2.99707
2.99708
2.99709
2.9971
2.99711
2.99712
2.99713
2.99714
2.99715
2.99716
2.99718
2.99719
2.9972
2.99722
2.99723
2.99724
2.99724
2.99725
2.99725
2.99725
2.99725
2.99724
2.99724
2.99723
2.99723
2.99722
2.99721
2.99721
2.99721
2.99721
2.99759
2.99762
2.99766
2.99772
2.99779
2.99787
2.99794
2.99802
2.99809
2.99815
2.99819
2.99823
2.99825
2.99826
2.99825
2.99824
2.99822
2.9982
2.99818
2.99815
2.99813
2.9981
2.99808
2.99806
2.99803
2.998
2.99797
2.99794
2.9979
2.99786
2.99783
2.9978
2.99777
2.99775
2.99774
2.99774
2.99774
2.99774
2.99774
2.99773
2.99773
2.99771
2.99769
2.99767
2.99764
2.99761
2.99758
2.99754
2.9975
2.99746
2.99742
2.99739
2.99736
2.99733
2.99732
2.99732
2.99732
2.99734
2.99736
2.99739
2.99743
2.99748
2.99752
2.99756
2.99761
2.99764
2.99768
2.99772
2.99775
2.99778
2.99781
2.99784
2.99787
2.9979
2.99791
2.99791
2.9979
2.99786
2.99781
2.99775
2.99767
2.99759
2.99751
2.99743
2.99736
2.99729
2.99723
2.99719
2.99715
2.99712
2.99711
2.9971
2.99711
2.99712
2.99715
2.99718
2.99723
2.99729
2.99735
2.99742
2.99749
2.99756
2.99763
2.9977
2.99775
2.9978
2.99784
2.99788
2.9979
2.99792
2.99794
2.99795
2.99795
2.99795
2.99794
2.99794
2.99794
2.99795
2.99798
2.99804
2.99812
2.99824
2.9984
2.99861
2.99887
2.99918
2.99954
2.99996
3.00044
3.00097
3.00156
3.00218
3.00283
3.00349
3.00415
3.00478
3.00536
3.00586
3.00628
3.00658
3.00675
3.00678
3.00667
3.00641
3.006
3.00545
3.00477
3.00398
3.0031
3.00214
3.00112
3.00007
2.99899
2.9979
2.99683
2.99578
2.99476
2.99379
2.99289
2.99207
2.99134
2.99071
2.9902
2.98981
2.98956
2.98947
2.98952
2.98975
2.99014
2.99069
2.99138
2.9922
2.99309
2.994
2.99488
2.99566
2.99629
2.99676
2.99707
2.99723
2.99729
2.99729
2.99726
2.99723
2.9972
2.99716
2.99711
2.99702
2.99691
2.99676
2.9966
2.99643
2.99625
2.99608
2.99592
2.99579
2.99567
2.99559
2.99553
2.9955
2.99549
2.99551
2.99555
2.9956
2.99566
2.99573
2.99581
2.99589
2.99597
2.99604
2.99612
2.9962
2.99628
2.99636
2.99643
2.99651
2.99658
2.99665
2.99672
2.99678
2.99683
2.99688
2.99692
2.99695
2.99698
2.997
2.99702
2.99703
2.99705
2.99706
2.99707
2.99708
2.9971
2.99711
2.99713
2.99714
2.99716
2.99718
2.99719
2.99721
2.99722
2.99723
2.99724
2.99725
2.99726
2.99726
2.99726
2.99725
2.99725
2.99724
2.99724
2.99723
2.99723
2.99723
2.99722
2.99722
2.99771
2.99773
2.99776
2.99779
2.99783
2.99788
2.99793
2.99798
2.99802
2.99806
2.9981
2.99813
2.99815
2.99817
2.99817
2.99818
2.99818
2.99817
2.99817
2.99815
2.99814
2.99812
2.9981
2.99808
2.99805
2.99802
2.99798
2.99794
2.9979
2.99786
2.99782
2.9978
2.99778
2.99777
2.99776
2.99776
2.99777
2.99777
2.99777
2.99776
2.99775
2.99772
2.99769
2.99765
2.99761
2.99756
2.99752
2.99748
2.99745
2.99742
2.9974
2.99739
2.99738
2.99738
2.99738
2.99739
2.99741
2.99742
2.99744
2.99746
2.99749
2.99751
2.99754
2.99756
2.99759
2.99761
2.99764
2.99767
2.9977
2.99773
2.99776
2.99779
2.99782
2.99785
2.99787
2.99787
2.99786
2.99783
2.99778
2.99773
2.99766
2.99759
2.99751
2.99744
2.99738
2.99732
2.99727
2.99723
2.9972
2.99718
2.99716
2.99716
2.99716
2.99717
2.99719
2.99722
2.99726
2.9973
2.99736
2.99742
2.99748
2.99755
2.99761
2.99767
2.99773
2.99777
2.99781
2.99785
2.99787
2.99789
2.99791
2.99792
2.99793
2.99793
2.99794
2.99795
2.99797
2.99801
2.99807
2.99815
2.99827
2.99842
2.99861
2.99884
2.99912
2.99944
2.99982
3.00025
3.00072
3.00123
3.00178
3.00236
3.00295
3.00353
3.00409
3.00461
3.00508
3.00547
3.00578
3.00598
3.00608
3.00607
3.00594
3.00569
3.00532
3.00483
3.00425
3.00356
3.00278
3.00193
3.00102
3.00005
2.99905
2.99803
2.997
2.99599
2.99501
2.99408
2.99321
2.99241
2.99171
2.99112
2.99063
2.99027
2.99004
2.98993
2.98997
2.99015
2.99048
2.99096
2.99157
2.99229
2.9931
2.99393
2.99474
2.99548
2.9961
2.99658
2.99691
2.99711
2.99721
2.99725
2.99726
2.99725
2.99722
2.99717
2.9971
2.99699
2.99685
2.99669
2.99651
2.99633
2.99616
2.996
2.99586
2.99575
2.99566
2.9956
2.99556
2.99555
2.99556
2.99558
2.99562
2.99567
2.99573
2.99579
2.99586
2.99593
2.99599
2.99606
2.99613
2.9962
2.99627
2.99634
2.99641
2.99648
2.99655
2.99661
2.99667
2.99673
2.99678
2.99682
2.99686
2.99689
2.99692
2.99694
2.99696
2.99697
2.99699
2.99701
2.99702
2.99704
2.99706
2.99708
2.9971
2.99712
2.99714
2.99716
2.99718
2.9972
2.99722
2.99724
2.99725
2.99726
2.99726
2.99727
2.99727
2.99727
2.99727
2.99726
2.99726
2.99725
2.99725
2.99725
2.99724
2.99724
2.99784
2.99785
2.99786
2.99787
2.99788
2.9979
2.99791
2.99793
2.99795
2.99797
2.99799
2.99802
2.99804
2.99807
2.99809
2.99811
2.99813
2.99814
2.99815
2.99815
2.99815
2.99814
2.99812
2.9981
2.99807
2.99803
2.99799
2.99794
2.9979
2.99786
2.99782
2.9978
2.99778
2.99778
2.99778
2.99779
2.9978
2.99781
2.99781
2.99779
2.99777
2.99773
2.99768
2.99763
2.99757
2.99752
2.99747
2.99743
2.9974
2.99739
2.99739
2.99739
2.99741
2.99743
2.99745
2.99747
2.99749
2.99751
2.99753
2.99754
2.99755
2.99755
2.99756
2.99756
2.99757
2.99758
2.9976
2.99762
2.99764
2.99767
2.9977
2.99773
2.99776
2.99779
2.99781
2.99782
2.99781
2.99779
2.99775
2.9977
2.99764
2.99758
2.99752
2.99746
2.99741
2.99736
2.99732
2.99729
2.99726
2.99724
2.99723
2.99722
2.99722
2.99723
2.99724
2.99726
2.99728
2.99732
2.99737
2.99742
2.99747
2.99753
2.99759
2.99765
2.9977
2.99774
2.99778
2.99781
2.99783
2.99786
2.99787
2.99789
2.9979
2.99792
2.99794
2.99798
2.99802
2.99809
2.99818
2.99829
2.99844
2.99863
2.99885
2.99911
2.99942
2.99976
3.00015
3.00058
3.00104
3.00152
3.00203
3.00255
3.00305
3.00354
3.00399
3.00439
3.00473
3.00499
3.00518
3.00529
3.00532
3.00525
3.0051
3.00487
3.00454
3.00413
3.00364
3.00306
3.0024
3.00167
3.00087
3
2.9991
2.99816
2.9972
2.99624
2.99531
2.99442
2.99359
2.99284
2.99218
2.99162
2.99116
2.99082
2.99059
2.99047
2.99048
2.99061
2.99088
2.99127
2.99179
2.99242
2.99313
2.99387
2.99461
2.9953
2.9959
2.99637
2.99673
2.99697
2.99712
2.99721
2.99724
2.99725
2.99723
2.99717
2.99708
2.99695
2.99679
2.9966
2.99641
2.99623
2.99606
2.99591
2.9958
2.99571
2.99564
2.99561
2.99559
2.9956
2.99562
2.99566
2.9957
2.99575
2.9958
2.99586
2.99591
2.99597
2.99602
2.99608
2.99613
2.9962
2.99626
2.99632
2.99639
2.99645
2.99651
2.99657
2.99663
2.99668
2.99672
2.99676
2.99679
2.99682
2.99684
2.99687
2.99689
2.99691
2.99693
2.99695
2.99697
2.99699
2.99702
2.99705
2.99707
2.9971
2.99713
2.99715
2.99718
2.9972
2.99722
2.99724
2.99726
2.99727
2.99728
2.99728
2.99729
2.99729
2.99728
2.99728
2.99728
2.99727
2.99727
2.99727
2.99727
2.99727
2.99798
2.99797
2.99796
2.99794
2.99793
2.99791
2.9979
2.99789
2.99788
2.99788
2.99789
2.99791
2.99793
2.99796
2.998
2.99803
2.99807
2.9981
2.99812
2.99814
2.99815
2.99815
2.99814
2.99811
2.99808
2.99804
2.99799
2.99794
2.9979
2.99786
2.99783
2.99781
2.9978
2.9978
2.99781
2.99782
2.99783
2.99784
2.99783
2.99781
2.99777
2.99772
2.99766
2.9976
2.99753
2.99747
2.99742
2.99739
2.99737
2.99737
2.99738
2.9974
2.99744
2.99748
2.99752
2.99755
2.99758
2.9976
2.99761
2.99761
2.9976
2.99759
2.99758
2.99757
2.99756
2.99756
2.99756
2.99757
2.99758
2.99761
2.99763
2.99766
2.9977
2.99773
2.99775
2.99776
2.99776
2.99774
2.99771
2.99768
2.99763
2.99758
2.99753
2.99748
2.99744
2.9974
2.99737
2.99735
2.99733
2.99731
2.9973
2.99729
2.99729
2.99729
2.99729
2.9973
2.99732
2.99734
2.99738
2.99742
2.99747
2.99752
2.99757
2.99762
2.99766
2.9977
2.99774
2.99777
2.99779
2.99782
2.99784
2.99786
2.99789
2.99792
2.99796
2.99802
2.99809
2.99819
2.99831
2.99847
2.99866
2.99888
2.99914
2.99943
2.99976
3.00012
3.00052
3.00094
3.00138
3.00183
3.00228
3.00272
3.00313
3.0035
3.00383
3.0041
3.0043
3.00444
3.00451
3.00452
3.00447
3.00436
3.0042
3.00398
3.0037
3.00336
3.00296
3.0025
3.00196
3.00135
3.00067
2.99992
2.99912
2.99827
2.9974
2.99652
2.99566
2.99483
2.99405
2.99335
2.99273
2.9922
2.99177
2.99143
2.9912
2.99106
2.99103
2.99111
2.9913
2.99161
2.99204
2.99258
2.99319
2.99384
2.99451
2.99514
2.9957
2.99617
2.99654
2.99682
2.99702
2.99714
2.99721
2.99724
2.99721
2.99715
2.99704
2.99689
2.99671
2.99651
2.99631
2.99613
2.99597
2.99583
2.99574
2.99567
2.99563
2.99562
2.99562
2.99565
2.99568
2.99572
2.99577
2.99582
2.99587
2.99592
2.99596
2.99601
2.99605
2.9961
2.99615
2.9962
2.99626
2.99631
2.99637
2.99643
2.99648
2.99653
2.99658
2.99662
2.99666
2.99669
2.99672
2.99674
2.99677
2.99679
2.99682
2.99684
2.99687
2.9969
2.99692
2.99696
2.99699
2.99702
2.99705
2.99709
2.99712
2.99715
2.99718
2.99721
2.99723
2.99726
2.99727
2.99729
2.9973
2.9973
2.99731
2.99731
2.99731
2.9973
2.9973
2.9973
2.9973
2.99729
2.99729
2.99729
2.9981
2.99808
2.99806
2.99802
2.99798
2.99793
2.99789
2.99785
2.99782
2.9978
2.9978
2.99781
2.99783
2.99787
2.99791
2.99796
2.998
2.99805
2.99809
2.99812
2.99814
2.99814
2.99814
2.99812
2.99808
2.99804
2.998
2.99795
2.9979
2.99787
2.99784
2.99782
2.99782
2.99782
2.99784
2.99785
2.99786
2.99786
2.99785
2.99782
2.99777
2.99771
2.99764
2.99757
2.9975
2.99743
2.99739
2.99736
2.99735
2.99736
2.99738
2.99743
2.99748
2.99753
2.99758
2.99763
2.99766
2.99768
2.99769
2.99768
2.99766
2.99764
2.99761
2.99758
2.99756
2.99754
2.99752
2.99752
2.99753
2.99754
2.99756
2.99759
2.99762
2.99765
2.99767
2.99769
2.9977
2.99769
2.99767
2.99765
2.99761
2.99758
2.99754
2.99751
2.99748
2.99745
2.99743
2.99741
2.9974
2.99739
2.99738
2.99737
2.99736
2.99735
2.99735
2.99735
2.99735
2.99737
2.99739
2.99742
2.99746
2.9975
2.99754
2.99759
2.99763
2.99766
2.99769
2.99772
2.99775
2.99777
2.9978
2.99784
2.99788
2.99793
2.998
2.99808
2.99819
2.99832
2.99848
2.99868
2.9989
2.99916
2.99946
2.99978
3.00014
3.00052
3.00091
3.00132
3.00173
3.00213
3.00251
3.00286
3.00316
3.00341
3.00361
3.00374
3.0038
3.00382
3.00378
3.00369
3.00357
3.00342
3.00325
3.00305
3.00282
3.00255
3.00224
3.00188
3.00146
3.00097
3.00041
2.99979
2.9991
2.99837
2.9976
2.99681
2.99603
2.99528
2.99458
2.99393
2.99336
2.99286
2.99244
2.99211
2.99185
2.99168
2.9916
2.99162
2.99175
2.99198
2.99233
2.99277
2.99329
2.99385
2.99443
2.995
2.99552
2.99598
2.99636
2.99667
2.9969
2.99706
2.99716
2.9972
2.99718
2.99711
2.99698
2.99681
2.99662
2.99641
2.99621
2.99603
2.99588
2.99576
2.99568
2.99564
2.99562
2.99562
2.99565
2.99569
2.99573
2.99578
2.99583
2.99588
2.99593
2.99597
2.99601
2.99604
2.99608
2.99612
2.99616
2.99621
2.99626
2.99631
2.99636
2.99641
2.99645
2.9965
2.99653
2.99656
2.99659
2.99662
2.99665
2.99667
2.9967
2.99673
2.99675
2.99679
2.99682
2.99685
2.99689
2.99693
2.99697
2.99701
2.99705
2.99709
2.99712
2.99716
2.99719
2.99722
2.99725
2.99727
2.99729
2.99731
2.99732
2.99732
2.99733
2.99733
2.99733
2.99733
2.99732
2.99732
2.99732
2.99732
2.99731
2.99731
2.99821
2.99819
2.99814
2.99809
2.99802
2.99795
2.99788
2.99782
2.99777
2.99774
2.99772
2.99772
2.99774
2.99778
2.99782
2.99788
2.99794
2.99799
2.99805
2.99809
2.99811
2.99813
2.99813
2.99811
2.99808
2.99804
2.998
2.99796
2.99792
2.99788
2.99786
2.99785
2.99784
2.99785
2.99786
2.99787
2.99788
2.99787
2.99785
2.99781
2.99776
2.99769
2.99762
2.99754
2.99747
2.99741
2.99736
2.99734
2.99734
2.99736
2.9974
2.99746
2.99752
2.99758
2.99764
2.99769
2.99773
2.99775
2.99775
2.99774
2.99771
2.99768
2.99764
2.9976
2.99756
2.99752
2.99749
2.99748
2.99747
2.99748
2.99749
2.99751
2.99754
2.99757
2.9976
2.99762
2.99763
2.99764
2.99763
2.99762
2.9976
2.99758
2.99756
2.99754
2.99752
2.9975
2.99749
2.99748
2.99747
2.99746
2.99745
2.99744
2.99743
2.99741
2.9974
2.9974
2.9974
2.9974
2.99741
2.99743
2.99746
2.99749
2.99752
2.99755
2.99759
2.99762
2.99765
2.99767
2.9977
2.99774
2.99777
2.99782
2.99788
2.99796
2.99805
2.99817
2.99831
2.99848
2.99868
2.99892
2.99919
2.99949
2.99981
3.00017
3.00054
3.00093
3.00132
3.0017
3.00207
3.00241
3.00271
3.00295
3.00314
3.00326
3.00331
3.00331
3.00325
3.00314
3.003
3.00283
3.00265
3.00247
3.00228
3.0021
3.00191
3.00171
3.00149
3.00122
3.00091
3.00054
3.00011
2.99961
2.99905
2.99844
2.99779
2.99712
2.99644
2.99578
2.99516
2.99457
2.99405
2.99358
2.99317
2.99282
2.99254
2.99232
2.99219
2.99215
2.99221
2.99238
2.99264
2.993
2.99343
2.99391
2.99441
2.99491
2.99538
2.99581
2.99619
2.99651
2.99677
2.99696
2.99708
2.99713
2.99712
2.99704
2.9969
2.99672
2.99652
2.99631
2.99611
2.99594
2.9958
2.9957
2.99564
2.99561
2.9956
2.99563
2.99567
2.99572
2.99577
2.99583
2.99588
2.99593
2.99597
2.99601
2.99604
2.99607
2.99611
2.99614
2.99618
2.99622
2.99627
2.99631
2.99635
2.99639
2.99643
2.99646
2.99649
2.99651
2.99653
2.99656
2.99658
2.99661
2.99664
2.99667
2.99671
2.99675
2.99679
2.99683
2.99688
2.99692
2.99697
2.99701
2.99705
2.9971
2.99714
2.99717
2.99721
2.99724
2.99727
2.99729
2.99731
2.99732
2.99733
2.99734
2.99734
2.99735
2.99734
2.99734
2.99734
2.99734
2.99733
2.99733
2.99733
2.99733
2.99831
2.99827
2.99822
2.99815
2.99806
2.99797
2.99788
2.9978
2.99774
2.99769
2.99766
2.99765
2.99767
2.9977
2.99775
2.99781
2.99787
2.99793
2.99799
2.99804
2.99807
2.9981
2.9981
2.99809
2.99807
2.99804
2.998
2.99797
2.99793
2.9979
2.99788
2.99788
2.99787
2.99788
2.99789
2.99789
2.99789
2.99787
2.99784
2.9978
2.99774
2.99767
2.99759
2.99752
2.99745
2.9974
2.99736
2.99735
2.99736
2.99739
2.99743
2.99749
2.99756
2.99763
2.99769
2.99775
2.99778
2.9978
2.9978
2.99779
2.99776
2.99772
2.99767
2.99762
2.99756
2.99751
2.99747
2.99744
2.99742
2.99742
2.99742
2.99744
2.99746
2.99749
2.99751
2.99754
2.99756
2.99758
2.99759
2.99759
2.99759
2.99758
2.99758
2.99757
2.99756
2.99756
2.99755
2.99755
2.99754
2.99753
2.99752
2.99751
2.9975
2.99748
2.99746
2.99745
2.99744
2.99743
2.99744
2.99744
2.99746
2.99748
2.9975
2.99752
2.99755
2.99757
2.9976
2.99763
2.99766
2.9977
2.99776
2.99782
2.9979
2.99801
2.99813
2.99828
2.99846
2.99867
2.99892
2.99919
2.9995
2.99984
3.00019
3.00057
3.00096
3.00134
3.00172
3.00207
3.00238
3.00264
3.00284
3.00298
3.00304
3.00303
3.00296
3.00282
3.00264
3.00242
3.00219
3.00196
3.00173
3.00152
3.00133
3.00116
3.00101
3.00087
3.00071
3.00054
3.00033
3.00007
2.99975
2.99938
2.99896
2.99848
2.99797
2.99742
2.99687
2.99632
2.99578
2.99526
2.99478
2.99433
2.99392
2.99355
2.99323
2.99298
2.99279
2.9927
2.9927
2.99279
2.99299
2.99327
2.99362
2.99401
2.99444
2.99487
2.99529
2.99568
2.99605
2.99637
2.99663
2.99684
2.99698
2.99704
2.99703
2.99695
2.9968
2.99662
2.99642
2.99621
2.99602
2.99586
2.99574
2.99565
2.9956
2.99558
2.99559
2.99563
2.99567
2.99573
2.9958
2.99586
2.99591
2.99596
2.996
2.99604
2.99607
2.9961
2.99613
2.99617
2.9962
2.99624
2.99628
2.99632
2.99635
2.99638
2.9964
2.99642
2.99644
2.99646
2.99648
2.99651
2.99654
2.99657
2.99661
2.99665
2.99669
2.99674
2.99678
2.99683
2.99688
2.99693
2.99698
2.99702
2.99707
2.99711
2.99715
2.99719
2.99722
2.99725
2.99728
2.9973
2.99732
2.99733
2.99734
2.99735
2.99735
2.99735
2.99735
2.99734
2.99734
2.99734
2.99733
2.99733
2.99733
2.99733
2.99838
2.99834
2.99828
2.99819
2.9981
2.99799
2.99789
2.9978
2.99772
2.99766
2.99762
2.9976
2.99761
2.99764
2.99768
2.99774
2.9978
2.99787
2.99793
2.99798
2.99802
2.99805
2.99806
2.99806
2.99805
2.99803
2.99801
2.99798
2.99795
2.99793
2.99792
2.99791
2.9979
2.9979
2.9979
2.9979
2.99788
2.99786
2.99782
2.99777
2.99771
2.99764
2.99757
2.9975
2.99744
2.9974
2.99738
2.99737
2.99739
2.99743
2.99748
2.99754
2.99761
2.99767
2.99773
2.99779
2.99782
2.99784
2.99784
2.99783
2.9978
2.99775
2.9977
2.99764
2.99757
2.99751
2.99746
2.99741
2.99738
2.99736
2.99735
2.99736
2.99738
2.9974
2.99743
2.99746
2.99749
2.99752
2.99754
2.99756
2.99758
2.99759
2.9976
2.9976
2.99761
2.99761
2.99761
2.99761
2.99761
2.9976
2.99759
2.99758
2.99756
2.99754
2.99752
2.9975
2.99748
2.99747
2.99746
2.99746
2.99746
2.99747
2.99748
2.99749
2.99751
2.99753
2.99756
2.99759
2.99763
2.99768
2.99775
2.99784
2.99795
2.99808
2.99824
2.99843
2.99865
2.9989
2.99919
2.9995
2.99985
3.00021
3.0006
3.00099
3.00138
3.00175
3.00209
3.00239
3.00264
3.00281
3.00291
3.00293
3.00287
3.00273
3.00253
3.00228
3.00199
3.00169
3.00138
3.00109
3.00083
3.0006
3.00041
3.00026
3.00013
3.00003
2.99994
2.99983
2.99971
2.99956
2.99936
2.99912
2.99883
2.9985
2.99813
2.99773
2.9973
2.99686
2.99642
2.99597
2.99553
2.9951
2.99468
2.99429
2.99393
2.99363
2.9934
2.99325
2.9932
2.99324
2.99337
2.99358
2.99385
2.99417
2.99452
2.99488
2.99524
2.99559
2.99593
2.99623
2.9965
2.99671
2.99685
2.99692
2.99691
2.99683
2.99669
2.99651
2.99631
2.99611
2.99594
2.99579
2.99568
2.99561
2.99557
2.99556
2.99558
2.99562
2.99568
2.99574
2.9958
2.99586
2.99592
2.99597
2.99601
2.99605
2.99608
2.99611
2.99615
2.99618
2.99622
2.99626
2.99629
2.99632
2.99635
2.99637
2.99638
2.9964
2.99641
2.99643
2.99645
2.99648
2.99652
2.99656
2.9966
2.99665
2.9967
2.99675
2.9968
2.99685
2.9969
2.99695
2.997
2.99704
2.99709
2.99713
2.99716
2.9972
2.99723
2.99726
2.99728
2.9973
2.99731
2.99732
2.99733
2.99734
2.99734
2.99734
2.99734
2.99733
2.99733
2.99732
2.99732
2.99732
2.99731
2.99731
2.99842
2.99838
2.99831
2.99823
2.99813
2.99802
2.99791
2.99781
2.99772
2.99765
2.9976
2.99758
2.99758
2.99759
2.99763
2.99768
2.99774
2.9978
2.99786
2.99791
2.99796
2.99799
2.99801
2.99803
2.99803
2.99802
2.99801
2.99799
2.99798
2.99796
2.99795
2.99794
2.99793
2.99793
2.99791
2.99789
2.99787
2.99783
2.99778
2.99773
2.99767
2.99761
2.99755
2.99749
2.99745
2.99742
2.99741
2.99742
2.99744
2.99748
2.99753
2.99759
2.99765
2.99771
2.99777
2.99781
2.99785
2.99786
2.99787
2.99785
2.99782
2.99778
2.99772
2.99766
2.99759
2.99752
2.99745
2.99739
2.99735
2.99731
2.99729
2.99729
2.9973
2.99732
2.99735
2.99738
2.99742
2.99746
2.9975
2.99754
2.99757
2.9976
2.99762
2.99764
2.99765
2.99767
2.99767
2.99768
2.99768
2.99767
2.99766
2.99764
2.99762
2.9976
2.99758
2.99755
2.99753
2.99751
2.99749
2.99748
2.99747
2.99746
2.99746
2.99746
2.99747
2.99749
2.99752
2.99756
2.99761
2.99768
2.99777
2.99788
2.99802
2.99819
2.99838
2.99861
2.99887
2.99916
2.99949
2.99984
3.00021
3.00061
3.00101
3.0014
3.00178
3.00212
3.00242
3.00266
3.00282
3.0029
3.00289
3.00279
3.00261
3.00236
3.00205
3.0017
3.00132
3.00095
3.00058
3.00025
2.99996
2.99972
2.99953
2.99939
2.99929
2.99922
2.99917
2.99913
2.99909
2.99902
2.99894
2.99883
2.99868
2.99849
2.99827
2.99802
2.99773
2.99741
2.99706
2.99668
2.99627
2.99585
2.99543
2.99501
2.99462
2.99428
2.99401
2.99381
2.99371
2.9937
2.99377
2.99393
2.99414
2.99439
2.99466
2.99495
2.99525
2.99555
2.99584
2.99612
2.99636
2.99657
2.99671
2.99678
2.99678
2.9967
2.99657
2.99639
2.9962
2.99602
2.99586
2.99573
2.99563
2.99557
2.99554
2.99554
2.99557
2.99561
2.99567
2.99573
2.99579
2.99586
2.99591
2.99596
2.996
2.99604
2.99608
2.99612
2.99616
2.9962
2.99623
2.99627
2.9963
2.99632
2.99634
2.99635
2.99636
2.99638
2.99639
2.99642
2.99645
2.99648
2.99653
2.99657
2.99662
2.99668
2.99673
2.99678
2.99683
2.99688
2.99693
2.99698
2.99702
2.99706
2.9971
2.99713
2.99717
2.9972
2.99722
2.99725
2.99727
2.99728
2.9973
2.99731
2.99731
2.99731
2.99732
2.99731
2.99731
2.99731
2.9973
2.9973
2.99729
2.99729
2.99729
2.99728
2.99844
2.9984
2.99833
2.99825
2.99815
2.99804
2.99793
2.99783
2.99774
2.99767
2.99761
2.99758
2.99756
2.99757
2.99759
2.99763
2.99768
2.99773
2.99778
2.99784
2.99788
2.99792
2.99796
2.99798
2.998
2.99801
2.99801
2.99801
2.998
2.998
2.99799
2.99797
2.99796
2.99794
2.99791
2.99788
2.99784
2.9978
2.99774
2.99769
2.99763
2.99758
2.99753
2.9975
2.99747
2.99746
2.99746
2.99748
2.9975
2.99754
2.99759
2.99764
2.99769
2.99774
2.99779
2.99783
2.99786
2.99787
2.99788
2.99786
2.99784
2.9978
2.99774
2.99767
2.9976
2.99753
2.99745
2.99738
2.99732
2.99728
2.99724
2.99723
2.99723
2.99724
2.99727
2.99731
2.99736
2.99741
2.99746
2.99751
2.99756
2.9976
2.99764
2.99767
2.9977
2.99772
2.99773
2.99774
2.99774
2.99773
2.99772
2.9977
2.99768
2.99766
2.99763
2.9976
2.99757
2.99754
2.99752
2.99749
2.99747
2.99746
2.99745
2.99744
2.99745
2.99746
2.99749
2.99754
2.99761
2.9977
2.99781
2.99795
2.99812
2.99832
2.99856
2.99883
2.99913
2.99946
2.99982
3.0002
3.0006
3.00101
3.00141
3.0018
3.00215
3.00245
3.00269
3.00285
3.00292
3.0029
3.00278
3.00257
3.00228
3.00193
3.00152
3.00109
3.00065
3.00022
2.99981
2.99945
2.99914
2.99889
2.9987
2.99857
2.99848
2.99844
2.99843
2.99844
2.99846
2.99849
2.99851
2.99852
2.99851
2.99847
2.9984
2.99829
2.99813
2.99793
2.99766
2.99735
2.99698
2.99658
2.99615
2.99572
2.9953
2.99493
2.99462
2.99439
2.99424
2.99419
2.99422
2.99431
2.99446
2.99465
2.99486
2.99508
2.99531
2.99555
2.99579
2.99602
2.99624
2.99643
2.99656
2.99663
2.99663
2.99656
2.99644
2.99627
2.9961
2.99593
2.99579
2.99567
2.99559
2.99554
2.99552
2.99552
2.99555
2.99559
2.99565
2.99571
2.99577
2.99583
2.99589
2.99593
2.99598
2.99602
2.99607
2.99611
2.99615
2.9962
2.99624
2.99627
2.9963
2.99632
2.99633
2.99634
2.99636
2.99637
2.9964
2.99643
2.99647
2.99651
2.99656
2.99662
2.99667
2.99673
2.99678
2.99683
2.99688
2.99692
2.99696
2.997
2.99704
2.99707
2.9971
2.99713
2.99716
2.99718
2.99721
2.99723
2.99725
2.99726
2.99727
2.99728
2.99728
2.99729
2.99729
2.99728
2.99728
2.99727
2.99727
2.99726
2.99726
2.99726
2.99725
2.99725
2.99843
2.99839
2.99833
2.99826
2.99817
2.99807
2.99796
2.99787
2.99778
2.9977
2.99764
2.99759
2.99757
2.99756
2.99757
2.99759
2.99762
2.99767
2.99771
2.99776
2.99781
2.99785
2.99789
2.99793
2.99796
2.99799
2.998
2.99802
2.99802
2.99802
2.99801
2.998
2.99798
2.99794
2.9979
2.99786
2.99781
2.99775
2.9977
2.99765
2.9976
2.99756
2.99753
2.99751
2.9975
2.99751
2.99752
2.99755
2.99758
2.99761
2.99765
2.99769
2.99773
2.99777
2.99781
2.99784
2.99786
2.99787
2.99788
2.99787
2.99784
2.9978
2.99775
2.99769
2.99761
2.99753
2.99745
2.99737
2.9973
2.99725
2.9972
2.99718
2.99717
2.99718
2.99721
2.99725
2.9973
2.99736
2.99742
2.99749
2.99755
2.99761
2.99766
2.9977
2.99774
2.99776
2.99778
2.99779