# vtk DataFile Version 2.0
HPC Tutorials: Michael Bader, Kaveh Rahnema, Oliver Meister
ASCII
DATASET RECTILINEAR_GRID
DIMENSIONS 257 257 1
X_COORDINATES 257 float
0
0.005
0.01
0.015
0.02
0.025
0.03
0.035
0.04
0.045
0.05
0.055
0.06
0.065
0.07
0.075
0.08
0.085
0.09
0.095
0.1
0.105
0.11
0.115
0.12
0.125
0.13
0.135
0.14
0.145
0.15
0.155
0.16
0.165
0.17
0.175
0.18
0.185
0.19
0.195
0.2
0.205
0.21
0.215
0.22
0.225
0.23
0.235
0.24
0.245
0.25
0.255
0.26
0.265
0.27
0.275
0.28
0.285
0.29
0.295
0.3
0.305
0.31
0.315
0.32
0.325
0.33
0.335
0.34
0.345
0.35
0.355
0.36
0.365
0.37
0.375
0.38
0.385
0.39
0.395
0.4
0.405
0.41
0.415
0.42
0.425
0.43
0.435
0.44
0.445
0.45
0.455
0.46
0.465
0.47
0.475
0.48
0.485
0.49
0.495
0.5
0.505
0.51
0.515
0.52
0.525
0.53
0.535
0.54
0.545
0.55
0.555
0.56
0.565
0.57
0.575
0.58
0.585
0.59
0.595
0.6
0.605
0.61
0.615
0.62
0.625
0.63
0.635
0.64
0.645
0.65
0.655
0.66
0.665
0.67
0.675
0.68
0.685
0.69
0.695
0.7
0.705
0.71
0.715
0.72
0.725
0.73
0.735
0.74
0.745
0.75
0.755
0.76
0.765
0.77
0.775
0.78
0.785
0.79
0.795
0.8
0.805
0.81
0.815
0.82
0.825
0.83
0.835
0.84
0.845
0.85
0.855
0.86
0.865
0.87
0.875
0.88
0.885
0.89
0.895
0.9
0.905
0.91
0.915
0.92
0.925
0.93
0.935
0.94
0.945
0.95
0.955
0.96
0.965
0.97
0.975
0.98
0.985
0.99
0.995
1
1.005
1.01
1.015
1.02
1.025
1.03
1.035
1.04
1.045
1.05
1.055
1.06
1.065
1.07
1.075
1.08
1.085
1.09
1.095
1.1
1.105
1.11
1.115
1.12
1.125
1.13
1.135
1.14
1.145
1.15
1.155
1.16
1.165
1.17
1.175
1.18
1.185
1.19
1.195
1.2
1.205
1.21
1.215
1.22
1.225
1.23
1.235
1.24
1.245
1.25
1.255
1.26
1.265
1.27
1.275
1.28
Y_COORDINATES 257 float
0
0.005
0.01
0.015
0.02
0.025
0.03
0.035
0.04
0.045
0.05
0.055
0.06
0.065
0.07
0.075
0.08
0.085
0.09
0.095
0.1
0.105
0.11
0.115
0.12
0.125
0.13
0.135
0.14
0.145
0.15
0.155
0.16
0.165
0.17
0.175
0.18
0.185
0.19
0.195
0.2
0.205
0.21
0.215
0.22
0.225
0.23
0.235
0.24
0.245
0.25
0.255
0.26
0.265
0.27
0.275
0.28
0.285
0.29
0.295
0.3
0.305
0.31
0.315
0.32
0.325
0.33
0.335
0.34
0.345
0.35
0.355
0.36
0.365
0.37
0.375
0.38
0.385
0.39
0.395
0.4
0.405
0.41
0.415
0.42
0.425
0.43
0.435
0.44
0.445
0.45
0.455
0.46
0.465
0.47
0.475
0.48
0.485
0.49
0.495
0.5
0.505
0.51
0.515
0.52
0.525
0.53
0.535
0.54
0.545
0.55
0.555
0.56
0.565
0.57
0.575
0.58
0.585
0.59
0.595
0.6
0.605
0.61
0.615
0.62
0.625
0.63
0.635
0.64
0.645
0.65
0.655
0.66
0.665
0.67
0.675
0.68
0.685
0.69
0.695
0.7
0.705
0.71
0.715
0.72
0.725
0.73
0.735
0.74
0.745
0.75
0.755
0.76
0.765
0.77
0.775
0.78
0.785
0.79
0.795
0.8
0.805
0.81
0.815
0.82
0.825
0.83
0.835
0.84
0.845
0.85
0.855
0.86
0.865
0.87
0.875
0.88
0.885
0.89
0.895
0.9
0.905
0.91
0.915
0.92
0.925
0.93
0.935
0.94
0.945
0.95
0.955
0.96
0.965
0.97
0.975
0.98
0.985
0.99
0.995
1
1.005
1.01
1.015
1.02
1.025
1.03
1.035
1.04
1.045
1.05
1.055
1.06
1.065
1.07
1.075
1.08
1.085
1.09
1.095
1.1
1.105
1.11
1.115
1.12
1.125
1.13
1.135
1.14
1.145
1.15
1.155
1.16
1.165
1.17
1.175
1.18
1.185
1.19
1.195
1.2
1.205
1.21
1.215
1.22
1.225
1.23
1.235
1.24
1.245
1.25
1.255
1.26
1.265
1.27
1.275
1.28
Z_COORDINATES 1 float
0
CELL_DATA 65536
SCALARS H float 1
LOOKUP_TABLE default
2.99476
2.99482
2.99489
2.995
2.99513
2.99528
2.99544
2.9956
2.99577
2.99594
2.9961
2.99626
2.9964
2.99653
2.99664
2.99674
2.99683
2.9969
2.99696
2.99702
2.99707
2.99712
2.99717
2.99724
2.99732
2.99741
2.99753
2.99767
2.99783
2.99803
2.99826
2.99852
2.99881
2.99913
2.99948
2.99984
3.0002
3.00054
3.00085
3.0011
3.00127
3.00133
3.00128
3.00111
3.0008
3.00038
2.99984
2.99922
2.99853
2.99781
2.99707
2.99634
2.99565
2.99502
2.99447
2.994
2.99362
2.99334
2.99315
2.99306
2.99303
2.99307
2.99314
2.99323
2.99333
2.99341
2.99347
2.9935
2.9935
2.99347
2.99343
2.99337
2.99332
2.99327
2.99325
2.99325
2.99328
2.99335
2.99346
2.9936
2.99377
2.99395
2.99416
2.99437
2.99457
2.99477
2.99495
2.99511
2.99525
2.99537
2.99547
2.99557
2.99568
2.9958
2.99597
2.99617
2.99644
2.99678
2.99717
2.99761
2.99806
2.99849
2.99886
2.9991
2.99919
2.99909
2.99881
2.99837
2.99784
2.99727
2.99676
2.99637
2.99615
2.99613
2.9963
2.99665
2.9971
2.99761
2.99811
2.99856
2.99895
2.99925
2.99948
2.99967
2.99982
2.99996
3.00009
3.00021
3.00031
3.00038
3.0004
3.00036
3.00025
3.00005
2.99979
2.99947
2.9991
2.99872
2.99833
2.99795
2.99759
2.99725
2.99695
2.99669
2.99648
2.99631
2.9962
2.99614
2.99612
2.99613
2.99618
2.99625
2.99634
2.99644
2.99654
2.99664
2.99673
2.99681
2.99687
2.99692
2.99695
2.99696
2.99696
2.99694
2.9969
2.99686
2.9968
2.99674
2.99667
2.9966
2.99653
2.99646
2.99639
2.99633
2.99627
2.99621
2.99616
2.99612
2.99609
2.99607
2.99606
2.99606
2.99607
2.99609
2.99612
2.99617
2.99622
2.99628
2.99635
2.99642
2.9965
2.99658
2.99666
2.99675
2.99683
2.9969
2.99698
2.99705
2.99711
2.99717
2.99722
2.99727
2.99731
2.99734
2.99736
2.99738
2.9974
2.9974
2.99741
2.9974
2.9974
2.99739
2.99738
2.99736
2.99734
2.99733
2.99731
2.99729
2.99727
2.99725
2.99723
2.99721
2.99719
2.99717
2.99715
2.99713
2.99711
2.99709
2.99707
2.99706
2.99705
2.99704
2.99704
2.99705
2.99706
2.99707
2.9971
2.99713
2.99717
2.99722
2.99728
2.99735
2.99743
2.99751
2.99759
2.99768
2.99777
2.99785
2.99794
2.99802
2.99809
2.99815
2.9982
2.99823
2.99826
2.99827
2.99482
2.99487
2.99494
2.99504
2.99517
2.99531
2.99546
2.99562
2.99578
2.99594
2.9961
2.99625
2.99638
2.99651
2.99662
2.99672
2.99681
2.99689
2.99695
2.99701
2.99707
2.99713
2.99719
2.99726
2.99734
2.99744
2.99757
2.99771
2.99788
2.99808
2.9983
2.99856
2.99885
2.99916
2.99949
2.99984
3.00018
3.0005
3.00078
3.00101
3.00115
3.0012
3.00114
3.00095
3.00065
3.00023
2.99972
2.99912
2.99846
2.99776
2.99705
2.99636
2.9957
2.9951
2.99456
2.99411
2.99374
2.99346
2.99327
2.99316
2.99311
2.99313
2.99318
2.99325
2.99332
2.99339
2.99343
2.99346
2.99346
2.99344
2.9934
2.99336
2.99332
2.99329
2.99327
2.99328
2.99332
2.9934
2.9935
2.99364
2.9938
2.99398
2.99417
2.99437
2.99457
2.99476
2.99494
2.9951
2.99523
2.99535
2.99546
2.99556
2.99567
2.9958
2.99596
2.99617
2.99645
2.99678
2.99717
2.99761
2.99806
2.99849
2.99886
2.9991
2.99919
2.99909
2.99881
2.99837
2.99784
2.99728
2.99677
2.99638
2.99616
2.99615
2.99633
2.99668
2.99713
2.99764
2.99815
2.9986
2.99898
2.99928
2.99951
2.99968
2.99983
2.99995
3.00007
3.00017
3.00026
3.00031
3.00031
3.00026
3.00014
2.99994
2.99968
2.99937
2.99902
2.99865
2.99828
2.99792
2.99758
2.99726
2.99698
2.99674
2.99653
2.99638
2.99627
2.99621
2.99619
2.99621
2.99625
2.99631
2.99639
2.99648
2.99657
2.99666
2.99674
2.99681
2.99687
2.99691
2.99693
2.99694
2.99693
2.99691
2.99687
2.99683
2.99677
2.99671
2.99665
2.99658
2.99651
2.99645
2.99638
2.99632
2.99626
2.99621
2.99617
2.99613
2.9961
2.99608
2.99607
2.99607
2.99609
2.99611
2.99614
2.99619
2.99624
2.9963
2.99637
2.99644
2.99652
2.9966
2.99668
2.99676
2.99684
2.99691
2.99699
2.99706
2.99712
2.99718
2.99723
2.99727
2.99731
2.99734
2.99736
2.99738
2.9974
2.9974
2.9974
2.9974
2.9974
2.99739
2.99737
2.99736
2.99734
2.99732
2.9973
2.99728
2.99726
2.99724
2.99722
2.9972
2.99718
2.99716
2.99714
2.99712
2.9971
2.99709
2.99707
2.99706
2.99705
2.99704
2.99704
2.99704
2.99705
2.99707
2.9971
2.99713
2.99717
2.99722
2.99728
2.99735
2.99742
2.9975
2.99759
2.99768
2.99777
2.99785
2.99794
2.99801
2.99808
2.99815
2.99819
2.99823
2.99825
2.99826
2.99489
2.99494
2.99501
2.99511
2.99522
2.99535
2.9955
2.99565
2.9958
2.99595
2.9961
2.99624
2.99637
2.99649
2.9966
2.9967
2.99679
2.99687
2.99694
2.99701
2.99707
2.99714
2.99721
2.99729
2.99739
2.9975
2.99763
2.99778
2.99796
2.99816
2.99838
2.99863
2.99891
2.99921
2.99952
2.99983
3.00014
3.00042
3.00067
3.00085
3.00096
3.00098
3.0009
3.00071
3.00041
3.00001
2.99953
2.99896
2.99835
2.99771
2.99705
2.99641
2.9958
2.99523
2.99473
2.99429
2.99393
2.99365
2.99344
2.99331
2.99323
2.99321
2.99322
2.99325
2.9933
2.99334
2.99338
2.99339
2.9934
2.99339
2.99337
2.99335
2.99333
2.99331
2.99332
2.99334
2.99339
2.99346
2.99356
2.99369
2.99384
2.99401
2.99419
2.99438
2.99457
2.99475
2.99492
2.99507
2.99521
2.99533
2.99544
2.99554
2.99566
2.99579
2.99596
2.99617
2.99645
2.99678
2.99718
2.99761
2.99807
2.99849
2.99886
2.9991
2.99918
2.99909
2.99881
2.99838
2.99785
2.99729
2.99679
2.9964
2.9962
2.99619
2.99638
2.99673
2.99719
2.9977
2.99821
2.99866
2.99904
2.99933
2.99954
2.9997
2.99983
2.99993
3.00002
3.00009
3.00015
3.00018
3.00016
3.00009
2.99996
2.99977
2.99951
2.99921
2.99888
2.99854
2.99821
2.99788
2.99757
2.99729
2.99703
2.99681
2.99663
2.99649
2.99639
2.99633
2.99631
2.99632
2.99635
2.9964
2.99646
2.99653
2.99661
2.99668
2.99675
2.99681
2.99685
2.99688
2.9969
2.9969
2.99689
2.99686
2.99683
2.99678
2.99673
2.99667
2.99661
2.99655
2.99649
2.99642
2.99637
2.99631
2.99626
2.99621
2.99617
2.99614
2.99612
2.9961
2.9961
2.9961
2.99612
2.99614
2.99618
2.99622
2.99627
2.99633
2.9964
2.99647
2.99654
2.99662
2.9967
2.99678
2.99686
2.99693
2.997
2.99707
2.99713
2.99718
2.99723
2.99728
2.99731
2.99734
2.99737
2.99738
2.99739
2.9974
2.9974
2.9974
2.99739
2.99738
2.99737
2.99735
2.99734
2.99732
2.9973
2.99728
2.99726
2.99724
2.99722
2.9972
2.99718
2.99716
2.99714
2.99712
2.9971
2.99708
2.99707
2.99705
2.99704
2.99704
2.99704
2.99704
2.99705
2.99707
2.99709
2.99713
2.99717
2.99722
2.99728
2.99735
2.99742
2.9975
2.99759
2.99767
2.99776
2.99785
2.99793
2.99801
2.99808
2.99814
2.99819
2.99823
2.99825
2.99826
2.995
2.99504
2.99511
2.99519
2.9953
2.99542
2.99555
2.99568
2.99582
2.99596
2.99609
2.99622
2.99635
2.99646
2.99657
2.99667
2.99676
2.99685
2.99693
2.997
2.99708
2.99716
2.99725
2.99734
2.99745
2.99758
2.99772
2.99788
2.99806
2.99826
2.99849
2.99873
2.99899
2.99926
2.99954
2.99981
3.00007
3.0003
3.00049
3.00063
3.0007
3.00068
3.00058
3.00038
3.00009
2.99972
2.99927
2.99876
2.99821
2.99763
2.99705
2.99647
2.99592
2.99541
2.99495
2.99454
2.99419
2.9939
2.99368
2.99351
2.9934
2.99332
2.99329
2.99327
2.99328
2.99329
2.9933
2.99332
2.99332
2.99333
2.99333
2.99333
2.99334
2.99335
2.99338
2.99342
2.99347
2.99355
2.99365
2.99377
2.9939
2.99406
2.99422
2.99439
2.99457
2.99474
2.9949
2.99504
2.99518
2.9953
2.99541
2.99552
2.99564
2.99578
2.99595
2.99617
2.99645
2.99679
2.99718
2.99762
2.99807
2.9985
2.99886
2.9991
2.99918
2.99908
2.99881
2.99838
2.99786
2.99731
2.99681
2.99644
2.99624
2.99625
2.99644
2.9968
2.99727
2.99779
2.99829
2.99874
2.99911
2.99939
2.99959
2.99972
2.99982
2.99989
2.99994
2.99998
3
2.99999
2.99995
2.99986
2.99972
2.99952
2.99928
2.99901
2.99871
2.99841
2.99811
2.99783
2.99757
2.99732
2.99711
2.99692
2.99676
2.99664
2.99655
2.9965
2.99647
2.99647
2.99648
2.99651
2.99656
2.99661
2.99666
2.99671
2.99676
2.9968
2.99683
2.99685
2.99686
2.99685
2.99683
2.9968
2.99676
2.99672
2.99667
2.99661
2.99656
2.9965
2.99645
2.9964
2.99634
2.9963
2.99625
2.99622
2.99619
2.99616
2.99614
2.99613
2.99613
2.99614
2.99616
2.99618
2.99622
2.99626
2.99632
2.99637
2.99644
2.99651
2.99658
2.99666
2.99673
2.99681
2.99688
2.99695
2.99702
2.99708
2.99714
2.9972
2.99724
2.99728
2.99732
2.99735
2.99737
2.99738
2.9974
2.9974
2.9974
2.9974
2.99739
2.99738
2.99736
2.99735
2.99733
2.99731
2.99729
2.99727
2.99725
2.99723
2.99721
2.99719
2.99717
2.99715
2.99713
2.99711
2.99709
2.99708
2.99706
2.99705
2.99704
2.99703
2.99703
2.99703
2.99705
2.99706
2.99709
2.99712
2.99716
2.99721
2.99727
2.99734
2.99742
2.9975
2.99758
2.99767
2.99776
2.99785
2.99793
2.99801
2.99808
2.99814
2.99819
2.99822
2.99825
2.99826
2.99513
2.99517
2.99522
2.9953
2.99539
2.9955
2.99561
2.99573
2.99585
2.99597
2.99609
2.99621
2.99632
2.99643
2.99653
2.99663
2.99673
2.99682
2.99691
2.997
2.99709
2.99718
2.99729
2.9974
2.99753
2.99767
2.99783
2.998
2.99819
2.9984
2.99861
2.99884
2.99908
2.99932
2.99955
2.99977
2.99997
3.00014
3.00027
3.00035
3.00036
3.00031
3.00018
2.99998
2.9997
2.99936
2.99896
2.99852
2.99804
2.99755
2.99704
2.99655
2.99608
2.99563
2.99521
2.99483
2.9945
2.99421
2.99396
2.99375
2.99359
2.99346
2.99337
2.9933
2.99326
2.99323
2.99323
2.99323
2.99324
2.99326
2.99329
2.99332
2.99335
2.99339
2.99344
2.9935
2.99357
2.99365
2.99375
2.99386
2.99398
2.99411
2.99426
2.99441
2.99457
2.99472
2.99487
2.99501
2.99514
2.99526
2.99538
2.99549
2.99562
2.99577
2.99595
2.99617
2.99646
2.9968
2.99719
2.99763
2.99808
2.9985
2.99886
2.9991
2.99918
2.99908
2.99881
2.99839
2.99787
2.99733
2.99685
2.99649
2.99631
2.99632
2.99653
2.9969
2.99737
2.99789
2.9984
2.99884
2.9992
2.99946
2.99963
2.99974
2.99979
2.99982
2.99983
2.99982
2.9998
2.99975
2.99968
2.99957
2.99942
2.99923
2.99901
2.99876
2.9985
2.99825
2.998
2.99778
2.99756
2.99737
2.9972
2.99705
2.99692
2.99682
2.99674
2.99669
2.99666
2.99664
2.99664
2.99665
2.99667
2.9967
2.99672
2.99676
2.99678
2.9968
2.99681
2.99681
2.99681
2.99679
2.99677
2.99673
2.99669
2.99665
2.9966
2.99655
2.9965
2.99645
2.99641
2.99636
2.99632
2.99628
2.99625
2.99622
2.9962
2.99619
2.99617
2.99617
2.99617
2.99618
2.99621
2.99623
2.99627
2.99632
2.99637
2.99643
2.99649
2.99656
2.99663
2.9967
2.99677
2.99684
2.99691
2.99698
2.99705
2.99711
2.99716
2.99721
2.99726
2.99729
2.99733
2.99735
2.99737
2.99739
2.99739
2.9974
2.9974
2.99739
2.99738
2.99737
2.99736
2.99734
2.99732
2.9973
2.99728
2.99726
2.99724
2.99722
2.9972
2.99718
2.99716
2.99714
2.99712
2.9971
2.99708
2.99707
2.99705
2.99704
2.99703
2.99703
2.99702
2.99703
2.99704
2.99705
2.99708
2.99711
2.99716
2.99721
2.99727
2.99733
2.99741
2.99749
2.99758
2.99766
2.99775
2.99784
2.99792
2.998
2.99807
2.99813
2.99818
2.99822
2.99824
2.99825
2.99528
2.99531
2.99535
2.99542
2.9955
2.99558
2.99568
2.99578
2.99588
2.99599
2.99609
2.99619
2.99629
2.99639
2.99649
2.99659
2.99669
2.99679
2.99689
2.99699
2.9971
2.99722
2.99734
2.99748
2.99762
2.99779
2.99796
2.99814
2.99834
2.99854
2.99875
2.99896
2.99917
2.99936
2.99954
2.99971
2.99984
2.99994
3
3.00001
2.99997
2.99988
2.99973
2.99952
2.99926
2.99896
2.99862
2.99825
2.99786
2.99745
2.99704
2.99664
2.99625
2.99587
2.9955
2.99516
2.99484
2.99454
2.99427
2.99402
2.99381
2.99362
2.99347
2.99335
2.99326
2.9932
2.99316
2.99316
2.99317
2.9932
2.99325
2.99331
2.99337
2.99344
2.99352
2.9936
2.99367
2.99376
2.99385
2.99395
2.99406
2.99417
2.9943
2.99443
2.99457
2.99471
2.99485
2.99498
2.99511
2.99523
2.99535
2.99546
2.9956
2.99575
2.99594
2.99617
2.99646
2.9968
2.9972
2.99763
2.99808
2.9985
2.99886
2.99909
2.99918
2.99908
2.99881
2.9984
2.99789
2.99737
2.9969
2.99656
2.99639
2.99641
2.99664
2.99701
2.9975
2.99802
2.99852
2.99896
2.99929
2.99953
2.99967
2.99973
2.99975
2.99972
2.99968
2.99962
2.99955
2.99947
2.99937
2.99924
2.99909
2.99891
2.9987
2.99849
2.99828
2.99807
2.99789
2.99772
2.99757
2.99743
2.9973
2.99719
2.9971
2.99702
2.99695
2.9969
2.99687
2.99684
2.99682
2.99681
2.9968
2.9968
2.9968
2.9968
2.9968
2.9968
2.99679
2.99678
2.99675
2.99673
2.99669
2.99665
2.99661
2.99657
2.99653
2.99648
2.99644
2.9964
2.99636
2.99633
2.9963
2.99627
2.99625
2.99623
2.99622
2.99621
2.99621
2.99621
2.99622
2.99624
2.99626
2.99629
2.99633
2.99637
2.99643
2.99648
2.99655
2.99661
2.99667
2.99675
2.99681
2.99689
2.99695
2.99701
2.99708
2.99713
2.99719
2.99723
2.99727
2.99731
2.99734
2.99736
2.99738
2.99739
2.9974
2.9974
2.9974
2.99739
2.99738
2.99737
2.99735
2.99733
2.99732
2.9973
2.99728
2.99726
2.99723
2.99721
2.99719
2.99717
2.99715
2.99713
2.99711
2.99709
2.99707
2.99706
2.99704
2.99703
2.99702
2.99701
2.99701
2.99701
2.99703
2.99704
2.99707
2.9971
2.99714
2.9972
2.99726
2.99732
2.9974
2.99748
2.99756
2.99765
2.99774
2.99783
2.99791
2.99799
2.99806
2.99812
2.99817
2.9982
2.99823
2.99824
2.99544
2.99546
2.9955
2.99555
2.99561
2.99568
2.99576
2.99584
2.99592
2.996
2.99609
2.99618
2.99626
2.99636
2.99645
2.99655
2.99665
2.99676
2.99687
2.99699
2.99712
2.99726
2.99741
2.99756
2.99773
2.99791
2.9981
2.9983
2.9985
2.9987
2.99889
2.99907
2.99924
2.99939
2.99951
2.99961
2.99967
2.9997
2.99968
2.99963
2.99954
2.99941
2.99924
2.99903
2.9988
2.99854
2.99826
2.99797
2.99766
2.99735
2.99704
2.99673
2.99642
2.99611
2.99581
2.99549
2.99519
2.99488
2.99458
2.99431
2.99404
2.9938
2.9936
2.99342
2.99329
2.99318
2.99313
2.99311
2.99312
2.99317
2.99322
2.99331
2.9934
2.99349
2.99359
2.99368
2.99378
2.99387
2.99396
2.99405
2.99414
2.99424
2.99435
2.99446
2.99458
2.9947
2.99483
2.99495
2.99507
2.99519
2.99531
2.99544
2.99557
2.99574
2.99593
2.99617
2.99646
2.99681
2.99721
2.99764
2.99809
2.99851
2.99885
2.99909
2.99917
2.99908
2.99882
2.99841
2.99793
2.99741
2.99696
2.99664
2.99648
2.99654
2.99676
2.99715
2.99764
2.99815
2.99865
2.99906
2.99939
2.99959
2.99968
2.99971
2.99966
2.99959
2.99949
2.99938
2.99927
2.99915
2.99903
2.99888
2.99873
2.99856
2.99838
2.99821
2.99805
2.99791
2.99778
2.99767
2.99758
2.99749
2.99742
2.99735
2.99728
2.99723
2.99717
2.99713
2.99708
2.99704
2.997
2.99697
2.99693
2.99691
2.99688
2.99686
2.99683
2.9968
2.99677
2.99673
2.9967
2.99666
2.99662
2.99658
2.99653
2.99649
2.99645
2.99641
2.99638
2.99634
2.99632
2.99629
2.99628
2.99626
2.99625
2.99625
2.99623
2.99624
2.99624
2.99625
2.99627
2.99628
2.99632
2.99635
2.99639
2.99644
2.99648
2.99655
2.9966
2.99666
2.99673
2.99679
2.99687
2.99692
2.99699
2.99706
2.9971
2.99717
2.99721
2.99726
2.9973
2.99732
2.99736
2.99737
2.99739
2.9974
2.9974
2.99741
2.9974
2.99739
2.99738
2.99736
2.99735
2.99733
2.99731
2.99729
2.99727
2.99724
2.99722
2.9972
2.99718
2.99716
2.99714
2.99712
2.9971
2.99707
2.99706
2.99704
2.99703
2.99701
2.997
2.997
2.99699
2.997
2.99701
2.99703
2.99706
2.99709
2.99713
2.99718
2.99724
2.99731
2.99738
2.99746
2.99755
2.99764
2.99773
2.99781
2.99789
2.99797
2.99804
2.9981
2.99815
2.99819
2.99821
2.99822
2.9956
2.99562
2.99565
2.99568
2.99573
2.99578
2.99584
2.9959
2.99596
2.99602
2.99609
2.99616
2.99624
2.99632
2.99642
2.99651
2.99662
2.99674
2.99686
2.997
2.99715
2.99731
2.99748
2.99766
2.99785
2.99805
2.99826
2.99846
2.99866
2.99885
2.99902
2.99917
2.99929
2.99939
2.99945
2.99947
2.99946
2.99941
2.99933
2.99922
2.99908
2.99892
2.99873
2.99854
2.99833
2.99811
2.9979
2.99768
2.99747
2.99725
2.99704
2.99682
2.99658
2.99635
2.99609
2.99582
2.99553
2.99522
2.99491
2.99459
2.99429
2.994
2.99374
2.99353
2.99333
2.99322
2.99312
2.99309
2.9931
2.99313
2.99322
2.99331
2.99343
2.99355
2.99366
2.99378
2.99388
2.99397
2.99407
2.99414
2.99423
2.99432
2.9944
2.9945
2.9946
2.99471
2.99482
2.99493
2.99505
2.99516
2.99528
2.99541
2.99555
2.99572
2.99592
2.99617
2.99646
2.99682
2.99721
2.99765
2.99809
2.9985
2.99886
2.99908
2.99917
2.99908
2.99882
2.99844
2.99795
2.99747
2.99704
2.99673
2.99661
2.99665
2.99691
2.9973
2.99778
2.99831
2.99877
2.99918
2.99946
2.99962
2.99969
2.99964
2.99956
2.99941
2.99927
2.99911
2.99895
2.99881
2.99865
2.99851
2.99835
2.99821
2.99807
2.99793
2.99783
2.99774
2.99768
2.99763
2.99759
2.99757
2.99754
2.9975
2.99747
2.99743
2.99739
2.99735
2.99729
2.99724
2.99719
2.99713
2.99708
2.99701
2.99697
2.99691
2.99686
2.99681
2.99675
2.99671
2.99665
2.9966
2.99655
2.9965
2.99646
2.99641
2.99638
2.99635
2.99632
2.99631
2.99628
2.99627
2.99626
2.99625
2.99626
2.99625
2.99627
2.99627
2.99628
2.9963
2.99631
2.99635
2.99637
2.99641
2.99646
2.99649
2.99656
2.99659
2.99666
2.99673
2.99677
2.99686
2.9969
2.99698
2.99704
2.99708
2.99716
2.99719
2.99724
2.99729
2.99731
2.99735
2.99736
2.99739
2.9974
2.9974
2.99741
2.99741
2.9974
2.99739
2.99738
2.99736
2.99734
2.99732
2.9973
2.99728
2.99726
2.99724
2.99721
2.99719
2.99717
2.99714
2.99712
2.9971
2.99708
2.99707
2.99704
2.99703
2.99701
2.99699
2.99699
2.99698
2.99698
2.99698
2.99699
2.99701
2.99703
2.99707
2.99711
2.99716
2.99722
2.99729
2.99737
2.99745
2.99753
2.99762
2.99771
2.99779
2.99788
2.99795
2.99802
2.99808
2.99813
2.99817
2.99819
2.9982
2.99577
2.99578
2.9958
2.99582
2.99585
2.99588
2.99592
2.99596
2.996
2.99605
2.9961
2.99616
2.99622
2.9963
2.99639
2.99649
2.9966
2.99672
2.99686
2.99702
2.99718
2.99737
2.99756
2.99776
2.99798
2.99819
2.99841
2.99862
2.99881
2.99898
2.99913
2.99924
2.99931
2.99935
2.99934
2.99929
2.9992
2.99909
2.99894
2.99878
2.99861
2.99842
2.99824
2.99804
2.99787
2.99771
2.99754
2.99741
2.99727
2.99715
2.99702
2.99688
2.99675
2.99655
2.99636
2.99611
2.99584
2.99554
2.9952
2.99488
2.99453
2.99421
2.99392
2.99364
2.99345
2.99327
2.99317
2.99312
2.9931
2.99317
2.99323
2.99334
2.99347
2.99359
2.99373
2.99385
2.99396
2.99407
2.99415
2.99424
2.99431
2.99438
2.99446
2.99454
2.99463
2.99472
2.99481
2.99493
2.99503
2.99514
2.99526
2.99539
2.99554
2.9957
2.99592
2.99616
2.99647
2.99681
2.99722
2.99765
2.99809
2.99851
2.99885
2.99909
2.99917
2.99908
2.99885
2.99845
2.99801
2.99753
2.99712
2.99685
2.99671
2.99682
2.99706
2.99746
2.99796
2.99843
2.99892
2.99926
2.99952
2.99964
2.99963
2.99956
2.99939
2.99921
2.99901
2.9988
2.99862
2.99843
2.99828
2.99813
2.99799
2.99787
2.99775
2.99768
2.99762
2.9976
2.99759
2.9976
2.99763
2.99764
2.99765
2.99765
2.99764
2.99762
2.99759
2.99754
2.9975
2.99743
2.99736
2.99729
2.9972
2.99713
2.99704
2.99697
2.9969
2.99681
2.99675
2.99667
2.99661
2.99655
2.99649
2.99645
2.99639
2.99636
2.99632
2.99629
2.99628
2.99625
2.99626
2.99625
2.99625
2.99626
2.99625
2.99628
2.99628
2.9963
2.99633
2.99633
2.99638
2.99638
2.99643
2.99647
2.9965
2.99657
2.99659
2.99667
2.99672
2.99677
2.99685
2.99689
2.99697
2.99702
2.99707
2.99715
2.99717
2.99724
2.99728
2.9973
2.99735
2.99736
2.9974
2.99741
2.99741
2.99743
2.99741
2.99742
2.99741
2.99739
2.99738
2.99736
2.99734
2.99732
2.9973
2.99727
2.99725
2.99722
2.9972
2.99718
2.99715
2.99713
2.99711
2.99708
2.99707
2.99704
2.99703
2.997
2.99699
2.99698
2.99696
2.99696
2.99696
2.99696
2.99698
2.99698
2.99702
2.99705
2.99709
2.99714
2.9972
2.99727
2.99734
2.99742
2.99751
2.99759
2.99768
2.99777
2.99785
2.99793
2.998
2.99806
2.99811
2.99814
2.99817
2.99818
2.99594
2.99594
2.99595
2.99596
2.99597
2.99599
2.996
2.99602
2.99605
2.99607
2.99611
2.99616
2.99621
2.99628
2.99637
2.99647
2.99659
2.99672
2.99687
2.99705
2.99723
2.99743
2.99765
2.99787
2.99811
2.99833
2.99856
2.99876
2.99894
2.9991
2.9992
2.99927
2.99929
2.99926
2.99919
2.99906
2.99892
2.99874
2.99854
2.99834
2.99813
2.99794
2.99774
2.99759
2.99744
2.99731
2.99723
2.99714
2.9971
2.99705
2.997
2.99695
2.99685
2.99675
2.99657
2.99636
2.99612
2.9958
2.9955
2.99513
2.99478
2.99444
2.99409
2.99384
2.99357
2.99339
2.99327
2.99318
2.99319
2.99319
2.99329
2.99339
2.9935
2.99366
2.99378
2.99392
2.99404
2.99414
2.99424
2.99431
2.99438
2.99446
2.99451
2.99459
2.99466
2.99474
2.99484
2.99492
2.99503
2.99513
2.99524
2.99538
2.99552
2.9957
2.9959
2.99616
2.99646
2.99682
2.99722
2.99765
2.9981
2.9985
2.99886
2.99908
2.99917
2.9991
2.99885
2.99852
2.99805
2.99761
2.99724
2.99695
2.99689
2.99695
2.99723
2.99764
2.99808
2.99861
2.999
2.99935
2.99955
2.99959
2.99957
2.99939
2.9992
2.99895
2.9987
2.99848
2.99824
2.99807
2.9979
2.99776
2.99765
2.99754
2.99749
2.99744
2.99745
2.99747
2.99752
2.99759
2.99765
2.99771
2.99776
2.99778
2.9978
2.99779
2.99776
2.99773
2.99767
2.9976
2.99752
2.99742
2.99734
2.99722
2.99713
2.99703
2.99692
2.99685
2.99674
2.99667
2.99658
2.99651
2.99646
2.99638
2.99635
2.9963
2.99627
2.99626
2.99623
2.99625
2.99623
2.99624
2.99625
2.99624
2.99629
2.99628
2.99631
2.99634
2.99634
2.9964
2.99639
2.99645
2.99648
2.9965
2.99658
2.99659
2.99667
2.99672
2.99676
2.99685
2.99687
2.99697
2.99701
2.99706
2.99714
2.99715
2.99724
2.99726
2.9973
2.99736
2.99735
2.99741
2.99741
2.99742
2.99744
2.99742
2.99744
2.99742
2.99741
2.99741
2.99738
2.99736
2.99734
2.99731
2.99729
2.99726
2.99724
2.99721
2.99719
2.99716
2.99714
2.99711
2.99709
2.99707
2.99703
2.99703
2.997
2.99698
2.99697
2.99694
2.99695
2.99693
2.99693
2.99694
2.99694
2.99697
2.99699
2.99703
2.99707
2.99711
2.99718
2.99724
2.99732
2.9974
2.99748
2.99757
2.99766
2.99774
2.99783
2.9979
2.99797
2.99803
2.99808
2.99812
2.99814
2.99815
2.9961
2.9961
2.9961
2.99609
2.99609
2.99609
2.99609
2.99609
2.9961
2.99611
2.99613
2.99617
2.99622
2.99628
2.99636
2.99647
2.99659
2.99674
2.9969
2.99709
2.99729
2.99751
2.99775
2.99799
2.99823
2.99847
2.99869
2.99888
2.99905
2.99916
2.99924
2.99925
2.99921
2.99912
2.99898
2.99881
2.99859
2.99837
2.99813
2.99789
2.99768
2.99746
2.9973
2.99716
2.99704
2.99699
2.99692
2.99694
2.99693
2.99695
2.99698
2.99695
2.99695
2.99686
2.99674
2.99658
2.99631
2.99607
2.99571
2.99538
2.99503
2.99464
2.99435
2.994
2.99377
2.99356
2.99339
2.99334
2.99326
2.99331
2.99336
2.99344
2.99359
2.99369
2.99385
2.99398
2.99409
2.99421
2.99429
2.99438
2.99446
2.99451
2.99458
2.99464
2.9947
2.99479
2.99485
2.99495
2.99503
2.99513
2.99525
2.99536
2.99552
2.99568
2.99591
2.99615
2.99646
2.99682
2.99722
2.99766
2.99808
2.99852
2.99884
2.99909
2.99918
2.99909
2.99891
2.99853
2.99813
2.99771
2.99732
2.99713
2.997
2.99714
2.99741
2.99777
2.99829
2.99868
2.99912
2.99939
2.99951
2.99957
2.9994
2.99923
2.99895
2.99865
2.9984
2.9981
2.99791
2.99769
2.99754
2.99743
2.99732
2.99728
2.99723
2.99726
2.9973
2.99737
2.99748
2.99757
2.99769
2.99778
2.99784
2.9979
2.99793
2.99793
2.99792
2.99787
2.99782
2.99774
2.99764
2.99756
2.99742
2.99733
2.99721
2.99708
2.99699
2.99685
2.99677
2.99666
2.99657
2.99651
2.99641
2.99638
2.99631
2.99628
2.99626
2.99622
2.99624
2.99621
2.99623
2.99624
2.99623
2.99629
2.99627
2.99632
2.99634
2.99634
2.99642
2.99639
2.99647
2.99649
2.99651
2.99659
2.99658
2.99668
2.9967
2.99675
2.99685
2.99685
2.99697
2.99698
2.99705
2.99713
2.99713
2.99724
2.99725
2.9973
2.99736
2.99735
2.99742
2.99741
2.99743
2.99746
2.99743
2.99746
2.99744
2.99743
2.99743
2.99739
2.99739
2.99736
2.99734
2.99731
2.99728
2.99726
2.99723
2.9972
2.99717
2.99715
2.99712
2.99709
2.99708
2.99703
2.99703
2.99699
2.99698
2.99697
2.99693
2.99694
2.99691
2.99691
2.99691
2.9969
2.99693
2.99693
2.99697
2.997
2.99704
2.9971
2.99715
2.99722
2.99729
2.99737
2.99746
2.99755
2.99763
2.99772
2.99779
2.99788
2.99795
2.998
2.99806
2.99808
2.99812
2.99812
2.99626
2.99625
2.99624
2.99622
2.99621
2.99619
2.99618
2.99616
2.99616
2.99616
2.99617
2.99619
2.99623
2.9963
2.99638
2.99649
2.99661
2.99677
2.99695
2.99715
2.99737
2.9976
2.99785
2.9981
2.99835
2.99858
2.9988
2.99897
2.9991
2.99919
2.99921
2.99917
2.99908
2.99892
2.99874
2.9985
2.99825
2.99799
2.99771
2.99748
2.99723
2.99706
2.99689
2.99677
2.99672
2.99666
2.99671
2.99672
2.99679
2.99687
2.9969
2.99699
2.99696
2.99694
2.99686
2.99668
2.99652
2.99621
2.99594
2.9956
2.99522
2.99493
2.99453
2.99428
2.99399
2.99375
2.99364
2.99347
2.99347
2.99343
2.99347
2.99358
2.99363
2.99379
2.9939
2.99402
2.99416
2.99424
2.99435
2.99444
2.99449
2.99458
2.99463
2.99469
2.99477
2.99481
2.99491
2.99497
2.99506
2.99516
2.99524
2.99539
2.99551
2.9957
2.9959
2.99616
2.99646
2.99681
2.99723
2.99764
2.99811
2.99849
2.99885
2.99909
2.99917
2.99916
2.9989
2.99862
2.99821
2.99778
2.99751
2.99721
2.99721
2.99731
2.99754
2.998
2.99834
2.99884
2.99915
2.99936
2.99951
2.99937
2.99928
2.99897
2.99866
2.99837
2.99801
2.99779
2.99751
2.99735
2.99722
2.9971
2.99708
2.99702
2.99707
2.9971
2.99719
2.99732
2.99744
2.9976
2.99771
2.99783
2.99793
2.99798
2.99802
2.99804
2.99802
2.998
2.99793
2.99783
2.99777
2.99762
2.99753
2.99739
2.99726
2.99716
2.99699
2.99692
2.99678
2.99668
2.9966
2.99648
2.99645
2.99635
2.99632
2.99628
2.99623
2.99625
2.9962
2.99623
2.99623
2.99622
2.99629
2.99626
2.99632
2.99634
2.99634
2.99643
2.99638
2.99648
2.99648
2.99651
2.9966
2.99656
2.99669
2.99668
2.99675
2.99684
2.99682
2.99697
2.99695
2.99704
2.99712
2.99711
2.99725
2.99722
2.9973
2.99736
2.99734
2.99744
2.9974
2.99745
2.99747
2.99744
2.99749
2.99745
2.99746
2.99746
2.99741
2.99742
2.99738
2.99736
2.99734
2.9973
2.99728
2.99725
2.99722
2.99719
2.99717
2.99713
2.9971
2.99708
2.99704
2.99704
2.99699
2.99698
2.99696
2.99692
2.99694
2.99689
2.9969
2.99689
2.99687
2.9969
2.99688
2.99692
2.99694
2.99697
2.99702
2.99706
2.99713
2.99719
2.99726
2.99735
2.99743
2.99751
2.99761
2.99768
2.99777
2.99785
2.99791
2.99799
2.99801
2.99807
2.99808
2.99809
2.9964
2.99638
2.99637
2.99635
2.99632
2.99629
2.99626
2.99624
2.99622
2.99621
2.99622
2.99623
2.99627
2.99633
2.99642
2.99653
2.99666
2.99683
2.99702
2.99723
2.99746
2.99771
2.99796
2.99821
2.99845
2.99868
2.99887
2.99902
2.99912
2.99915
2.99913
2.99904
2.99888
2.99869
2.99844
2.99817
2.99789
2.99759
2.99733
2.99705
2.99686
2.99667
2.99654
2.99648
2.9964
2.99646
2.99646
2.99656
2.99667
2.99673
2.99689
2.9969
2.99698
2.99696
2.99687
2.99681
2.99656
2.99639
2.99609
2.99576
2.9955
2.99509
2.99485
2.99451
2.99424
2.99408
2.99381
2.99377
2.99363
2.99361
2.99366
2.99364
2.99378
2.99383
2.99395
2.99409
2.99416
2.9943
2.99439
2.99446
2.99457
2.99461
2.99469
2.99476
2.99479
2.9949
2.99493
2.99502
2.9951
2.99517
2.9953
2.99538
2.99554
2.99569
2.99591
2.99616
2.99646
2.99683
2.9972
2.99767
2.99807
2.99851
2.99885
2.99907
2.99923
2.99912
2.999
2.99866
2.99827
2.99797
2.99755
2.99744
2.99735
2.99745
2.99779
2.99803
2.99854
2.99886
2.99915
2.99939
2.9993
2.9993
2.99899
2.9987
2.99839
2.99796
2.99773
2.99738
2.9972
2.99703
2.9969
2.99688
2.99681
2.99688
2.9969
2.997
2.99714
2.99726
2.99746
2.99759
2.99775
2.99788
2.99797
2.99805
2.99809
2.9981
2.99811
2.99806
2.99799
2.99794
2.99779
2.99773
2.99757
2.99744
2.99735
2.99716
2.99709
2.99692
2.99682
2.99673
2.99659
2.99656
2.99642
2.9964
2.99634
2.99627
2.9963
2.99622
2.99626
2.99624
2.99623
2.9963
2.99624
2.99634
2.99633
2.99634
2.99643
2.99637
2.9965
2.99647
2.99651
2.9966
2.99654
2.9967
2.99665
2.99675
2.99682
2.99679
2.99697
2.99691
2.99703
2.99709
2.99708
2.99725
2.99718
2.9973
2.99734
2.99732
2.99745
2.99738
2.99747
2.99748
2.99744
2.99752
2.99745
2.99749
2.99748
2.99743
2.99746
2.9974
2.99739
2.99737
2.99732
2.99731
2.99727
2.99724
2.9972
2.99718
2.99714
2.99712
2.99709
2.99704
2.99705
2.99699
2.99699
2.99696
2.99691
2.99694
2.99687
2.9969
2.99687
2.99685
2.99688
2.99684
2.99689
2.99688
2.99691
2.99696
2.99698
2.99705
2.9971
2.99716
2.99724
2.99732
2.9974
2.9975
2.99757
2.99767
2.99775
2.99781
2.9979
2.99794
2.99801
2.99803
2.99806
2.99807
2.99653
2.99651
2.99649
2.99646
2.99643
2.99639
2.99636
2.99632
2.9963
2.99628
2.99628
2.9963
2.99633
2.99639
2.99648
2.99659
2.99674
2.99691
2.9971
2.99732
2.99756
2.99781
2.99807
2.99831
2.99854
2.99874
2.9989
2.99902
2.99906
2.99906
2.99898
2.99883
2.99865
2.99839
2.99812
2.99782
2.9975
2.99723
2.99692
2.99672
2.99649
2.99635
2.99627
2.99617
2.99623
2.99621
2.99632
2.99643
2.9965
2.9967
2.99672
2.99688
2.99691
2.99689
2.99692
2.99673
2.99667
2.99643
2.99618
2.99599
2.9956
2.99542
2.99505
2.99479
2.9946
2.99427
2.99421
2.99397
2.9939
2.99387
2.99377
2.99388
2.99384
2.99394
2.99404
2.99409
2.99424
2.99431
2.9944
2.99452
2.99457
2.99467
2.99475
2.99478
2.9949
2.99492
2.99502
2.99508
2.99513
2.99525
2.99529