# vtk DataFile Version 2.0
HPC Tutorials: Michael Bader, Kaveh Rahnema, Oliver Meister
ASCII
DATASET RECTILINEAR_GRID
DIMENSIONS 257 257 1
X_COORDINATES 257 float
0
0.005
0.01
0.015
0.02
0.025
0.03
0.035
0.04
0.045
0.05
0.055
0.06
0.065
0.07
0.075
0.08
0.085
0.09
0.095
0.1
0.105
0.11
0.115
0.12
0.125
0.13
0.135
0.14
0.145
0.15
0.155
0.16
0.165
0.17
0.175
0.18
0.185
0.19
0.195
0.2
0.205
0.21
0.215
0.22
0.225
0.23
0.235
0.24
0.245
0.25
0.255
0.26
0.265
0.27
0.275
0.28
0.285
0.29
0.295
0.3
0.305
0.31
0.315
0.32
0.325
0.33
0.335
0.34
0.345
0.35
0.355
0.36
0.365
0.37
0.375
0.38
0.385
0.39
0.395
0.4
0.405
0.41
0.415
0.42
0.425
0.43
0.435
0.44
0.445
0.45
0.455
0.46
0.465
0.47
0.475
0.48
0.485
0.49
0.495
0.5
0.505
0.51
0.515
0.52
0.525
0.53
0.535
0.54
0.545
0.55
0.555
0.56
0.565
0.57
0.575
0.58
0.585
0.59
0.595
0.6
0.605
0.61
0.615
0.62
0.625
0.63
0.635
0.64
0.645
0.65
0.655
0.66
0.665
0.67
0.675
0.68
0.685
0.69
0.695
0.7
0.705
0.71
0.715
0.72
0.725
0.73
0.735
0.74
0.745
0.75
0.755
0.76
0.765
0.77
0.775
0.78
0.785
0.79
0.795
0.8
0.805
0.81
0.815
0.82
0.825
0.83
0.835
0.84
0.845
0.85
0.855
0.86
0.865
0.87
0.875
0.88
0.885
0.89
0.895
0.9
0.905
0.91
0.915
0.92
0.925
0.93
0.935
0.94
0.945
0.95
0.955
0.96
0.965
0.97
0.975
0.98
0.985
0.99
0.995
1
1.005
1.01
1.015
1.02
1.025
1.03
1.035
1.04
1.045
1.05
1.055
1.06
1.065
1.07
1.075
1.08
1.085
1.09
1.095
1.1
1.105
1.11
1.115
1.12
1.125
1.13
1.135
1.14
1.145
1.15
1.155
1.16
1.165
1.17
1.175
1.18
1.185
1.19
1.195
1.2
1.205
1.21
1.215
1.22
1.225
1.23
1.235
1.24
1.245
1.25
1.255
1.26
1.265
1.27
1.275
1.28
Y_COORDINATES 257 float
0
0.005
0.01
0.015
0.02
0.025
0.03
0.035
0.04
0.045
0.05
0.055
0.06
0.065
0.07
0.075
0.08
0.085
0.09
0.095
0.1
0.105
0.11
0.115
0.12
0.125
0.13
0.135
0.14
0.145
0.15
0.155
0.16
0.165
0.17
0.175
0.18
0.185
0.19
0.195
0.2
0.205
0.21
0.215
0.22
0.225
0.23
0.235
0.24
0.245
0.25
0.255
0.26
0.265
0.27
0.275
0.28
0.285
0.29
0.295
0.3
0.305
0.31
0.315
0.32
0.325
0.33
0.335
0.34
0.345
0.35
0.355
0.36
0.365
0.37
0.375
0.38
0.385
0.39
0.395
0.4
0.405
0.41
0.415
0.42
0.425
0.43
0.435
0.44
0.445
0.45
0.455
0.46
0.465
0.47
0.475
0.48
0.485
0.49
0.495
0.5
0.505
0.51
0.515
0.52
0.525
0.53
0.535
0.54
0.545
0.55
0.555
0.56
0.565
0.57
0.575
0.58
0.585
0.59
0.595
0.6
0.605
0.61
0.615
0.62
0.625
0.63
0.635
0.64
0.645
0.65
0.655
0.66
0.665
0.67
0.675
0.68
0.685
0.69
0.695
0.7
0.705
0.71
0.715
0.72
0.725
0.73
0.735
0.74
0.745
0.75
0.755
0.76
0.765
0.77
0.775
0.78
0.785
0.79
0.795
0.8
0.805
0.81
0.815
0.82
0.825
0.83
0.835
0.84
0.845
0.85
0.855
0.86
0.865
0.87
0.875
0.88
0.885
0.89
0.895
0.9
0.905
0.91
0.915
0.92
0.925
0.93
0.935
0.94
0.945
0.95
0.955
0.96
0.965
0.97
0.975
0.98
0.985
0.99
0.995
1
1.005
1.01
1.015
1.02
1.025
1.03
1.035
1.04
1.045
1.05
1.055
1.06
1.065
1.07
1.075
1.08
1.085
1.09
1.095
1.1
1.105
1.11
1.115
1.12
1.125
1.13
1.135
1.14
1.145
1.15
1.155
1.16
1.165
1.17
1.175
1.18
1.185
1.19
1.195
1.2
1.205
1.21
1.215
1.22
1.225
1.23
1.235
1.24
1.245
1.25
1.255
1.26
1.265
1.27
1.275
1.28
Z_COORDINATES 1 float
0
CELL_DATA 65536
SCALARS H float 1
LOOKUP_TABLE default
2.99859
2.99858
2.99857
2.99856
2.99854
2.99852
2.99849
2.99845
2.99842
2.9984
2.99841
2.99847
2.9986
2.99881
2.99911
2.99952
3.00003
3.00062
3.00128
3.00198
3.00268
3.00334
3.00392
3.00437
3.00465
3.00473
3.00459
3.00423
3.00365
3.00288
3.00196
3.00092
2.99982
2.99872
2.99767
2.99672
2.99591
2.99528
2.99484
2.99462
2.99459
2.99475
2.99506
2.99547
2.99593
2.99639
2.99679
2.99708
2.99725
2.99728
2.99718
2.99698
2.99673
2.99646
2.99622
2.99603
2.99592
2.99589
2.99594
2.99607
2.99624
2.99645
2.99668
2.99691
2.99712
2.99731
2.99748
2.99762
2.99773
2.99782
2.99789
2.99793
2.99796
2.99797
2.99797
2.99795
2.99792
2.99787
2.99782
2.99775
2.99768
2.99761
2.99754
2.99747
2.99741
2.99736
2.99733
2.9973
2.9973
2.99731
2.99734
2.99739
2.99746
2.99754
2.99763
2.99774
2.99786
2.99797
2.99809
2.9982
2.99829
2.99837
2.99843
2.99848
2.9985
2.99852
2.99853
2.99853
2.99853
2.99854
2.99855
2.99857
2.99859
2.99862
2.99864
2.99865
2.99866
2.99864
2.99859
2.99851
2.99839
2.99824
2.99805
2.99782
2.99757
2.9973
2.99702
2.99676
2.99652
2.99631
2.99615
2.99605
2.996
2.996
2.99605
2.99613
2.99624
2.99636
2.99647
2.99657
2.99666
2.99673
2.99679
2.99684
2.99688
2.99693
2.99697
2.99702
2.99708
2.99714
2.99721
2.99729
2.99738
2.99747
2.99757
2.99767
2.99778
2.99789
2.99801
2.99812
2.99824
2.99836
2.99848
2.99862
2.99877
2.99895
2.99915
2.99939
2.99967
2.99999
3.00035
3.00074
3.00116
3.00159
3.00201
3.0024
3.00272
3.00294
3.00304
3.00298
3.00275
3.00233
3.00174
3.00097
3.00007
2.99906
2.99799
2.99692
2.99589
2.99498
2.99422
2.99368
2.99338
2.99333
2.99353
2.99394
2.9945
2.99514
2.99577
2.99628
2.99662
2.99674
2.99665
2.99639
2.99603
2.99564
2.9953
2.99504
2.9949
2.99488
2.99495
2.9951
2.99531
2.99555
2.9958
2.99604
2.99626
2.99646
2.99662
2.99676
2.99688
2.99697
2.99704
2.9971
2.99714
2.99717
2.99719
2.99721
2.99721
2.99722
2.99722
2.99722
2.99722
2.99722
2.99721
2.99721
2.99721
2.99721
2.99721
2.99721
2.99721
2.99722
2.99723
2.99724
2.99726
2.99729
2.99731
2.99734
2.99737
2.9974
2.99744
2.99746
2.99749
2.99751
2.99752
2.99752
2.99858
2.99856
2.99856
2.99855
2.99854
2.99852
2.99849
2.99845
2.99843
2.99841
2.99843
2.99851
2.99864
2.99886
2.99918
2.99959
3.00009
3.00067
3.00131
3.00198
3.00265
3.00327
3.00381
3.00421
3.00446
3.00452
3.00436
3.004
3.00344
3.0027
3.00182
3.00084
2.9998
2.99876
2.99776
2.99686
2.99609
2.99548
2.99505
2.99482
2.99477
2.99489
2.99515
2.99552
2.99593
2.99634
2.99671
2.99698
2.99714
2.99717
2.99708
2.99691
2.99669
2.99645
2.99624
2.99608
2.99599
2.99597
2.99603
2.99615
2.99632
2.99652
2.99674
2.99695
2.99715
2.99732
2.99748
2.99761
2.99772
2.9978
2.99787
2.99791
2.99794
2.99795
2.99794
2.99792
2.99789
2.99784
2.99779
2.99773
2.99766
2.99759
2.99753
2.99747
2.99741
2.99737
2.99734
2.99732
2.99731
2.99733
2.99736
2.9974
2.99746
2.99754
2.99763
2.99774
2.99785
2.99796
2.99808
2.99818
2.99828
2.99836
2.99842
2.99847
2.9985
2.99852
2.99853
2.99854
2.99855
2.99856
2.99857
2.99858
2.9986
2.99862
2.99863
2.99864
2.99863
2.9986
2.99854
2.99846
2.99834
2.99819
2.99801
2.99779
2.99755
2.9973
2.99704
2.99679
2.99655
2.99636
2.9962
2.9961
2.99604
2.99604
2.99608
2.99616
2.99626
2.99636
2.99647
2.99656
2.99665
2.99672
2.99677
2.99682
2.99687
2.99691
2.99696
2.99701
2.99707
2.99713
2.99721
2.99729
2.99738
2.99747
2.99758
2.99768
2.99779
2.99791
2.99802
2.99814
2.99826
2.99838
2.99851
2.99866
2.99882
2.999
2.99921
2.99945
2.99973
3.00005
3.0004
3.00078
3.00118
3.00158
3.00197
3.00232
3.0026
3.00278
3.00285
3.00276
3.00252
3.0021
3.00152
3.00079
2.99993
2.99898
2.99797
2.99696
2.99599
2.99513
2.99441
2.99389
2.9936
2.99355
2.99372
2.9941
2.99462
2.9952
2.99578
2.99625
2.99655
2.99665
2.99655
2.9963
2.99595
2.99559
2.99527
2.99504
2.99492
2.99491
2.99499
2.99515
2.99535
2.99559
2.99583
2.99606
2.99628
2.99646
2.99662
2.99676
2.99687
2.99696
2.99703
2.99709
2.99713
2.99716
2.99718
2.9972
2.99721
2.99721
2.99722
2.99722
2.99722
2.99721
2.99721
2.99721
2.99721
2.9972
2.9972
2.99721
2.99721
2.99722
2.99723
2.99724
2.99726
2.99728
2.99731
2.99734
2.99737
2.9974
2.99743
2.99746
2.99748
2.9975
2.99751
2.99752
2.99857
2.99856
2.99856
2.99855
2.99853
2.99851
2.99848
2.99845
2.99843
2.99843
2.99847
2.99856
2.99871
2.99895
2.99927
2.99968
3.00017
3.00074
3.00134
3.00197
3.00258
3.00314
3.00362
3.00396
3.00416
3.00418
3.00401
3.00366
3.00313
3.00245
3.00164
3.00074
2.99979
2.99884
2.99793
2.9971
2.99638
2.9958
2.99538
2.99512
2.99503
2.99509
2.99528
2.99557
2.99591
2.99626
2.99657
2.99681
2.99696
2.997
2.99695
2.99682
2.99664
2.99646
2.99629
2.99617
2.99611
2.99611
2.99617
2.99629
2.99645
2.99662
2.99681
2.997
2.99718
2.99734
2.99748
2.9976
2.99769
2.99777
2.99783
2.99787
2.99789
2.9979
2.99789
2.99787
2.99784
2.9978
2.99775
2.99769
2.99763
2.99757
2.99751
2.99746
2.99742
2.99738
2.99735
2.99734
2.99734
2.99735
2.99738
2.99742
2.99748
2.99755
2.99763
2.99773
2.99784
2.99794
2.99805
2.99816
2.99825
2.99834
2.99841
2.99846
2.9985
2.99853
2.99855
2.99856
2.99857
2.99858
2.99859
2.9986
2.99861
2.99862
2.99861
2.9986
2.99858
2.99853
2.99847
2.99838
2.99826
2.99812
2.99795
2.99775
2.99753
2.9973
2.99706
2.99683
2.99662
2.99643
2.99628
2.99617
2.99612
2.9961
2.99613
2.9962
2.99628
2.99637
2.99647
2.99655
2.99663
2.99669
2.99675
2.99679
2.99684
2.99689
2.99694
2.99699
2.99705
2.99712
2.9972
2.99729
2.99738
2.99748
2.99759
2.9977
2.99781
2.99793
2.99805
2.99817
2.9983
2.99843
2.99857
2.99872
2.99889
2.99909
2.9993
2.99955
2.99983
3.00014
3.00047
3.00083
3.00119
3.00155
3.00188
3.00217
3.00239
3.00252
3.00253
3.00241
3.00216
3.00175
3.00121
3.00053
2.99975
2.99888
2.99797
2.99705
2.99617
2.99538
2.99472
2.99424
2.99395
2.99388
2.99401
2.99433
2.99477
2.99528
2.99577
2.99617
2.99643
2.9965
2.9964
2.99616
2.99584
2.99552
2.99524
2.99505
2.99496
2.99496
2.99506
2.99522
2.99542
2.99564
2.99587
2.99609
2.99629
2.99647
2.99662
2.99675
2.99686
2.99694
2.99701
2.99707
2.99711
2.99714
2.99717
2.99718
2.9972
2.9972
2.99721
2.99721
2.99721
2.99721
2.99721
2.9972
2.9972
2.9972
2.9972
2.9972
2.99721
2.99722
2.99723
2.99724
2.99726
2.99728
2.99731
2.99734
2.99737
2.9974
2.99743
2.99746
2.99748
2.9975
2.99751
2.99752
2.99856
2.99855
2.99855
2.99854
2.99853
2.9985
2.99848
2.99846
2.99845
2.99847
2.99853
2.99864
2.99882
2.99907
2.9994
2.99981
3.00029
3.00082
3.00138
3.00194
3.00248
3.00295
3.00334
3.00361
3.00374
3.00371
3.00353
3.00319
3.00271
3.0021
3.00139
3.00061
2.99979
2.99896
2.99817
2.99743
2.99678
2.99623
2.99581
2.99553
2.99538
2.99536
2.99546
2.99564
2.99588
2.99615
2.9964
2.9966
2.99673
2.99679
2.99677
2.9967
2.99658
2.99646
2.99636
2.99629
2.99626
2.99629
2.99636
2.99647
2.99661
2.99676
2.99692
2.99707
2.99722
2.99736
2.99748
2.99758
2.99767
2.99773
2.99778
2.99782
2.99784
2.99784
2.99783
2.99781
2.99778
2.99774
2.99769
2.99764
2.99759
2.99754
2.99749
2.99745
2.99742
2.99739
2.99738
2.99737
2.99737
2.99738
2.99741
2.99745
2.9975
2.99756
2.99763
2.99772
2.99782
2.99792
2.99802
2.99813
2.99822
2.99831
2.99839
2.99845
2.9985
2.99854
2.99857
2.99859
2.99861
2.99862
2.99863
2.99863
2.99862
2.99861
2.99859
2.99855
2.99851
2.99844
2.99837
2.99827
2.99816
2.99803
2.99787
2.9977
2.99751
2.99731
2.9971
2.99689
2.9967
2.99653
2.99638
2.99628
2.99622
2.99619
2.9962
2.99625
2.99631
2.99639
2.99646
2.99654
2.9966
2.99666
2.99671
2.99676
2.99681
2.99685
2.99691
2.99697
2.99704
2.99711
2.9972
2.99729
2.99739
2.99749
2.9976
2.99772
2.99784
2.99796
2.99809
2.99822
2.99835
2.9985
2.99865
2.99882
2.999
2.99921
2.99944
2.99969
2.99996
3.00026
3.00057
3.00088
3.00119
3.00148
3.00174
3.00195
3.00208
3.00214
3.00209
3.00193
3.00166
3.00128
3.00078
3.00019
2.9995
2.99876
2.99797
2.99718
2.99642
2.99573
2.99514
2.9947
2.99442
2.99432
2.9944
2.99464
2.99499
2.99539
2.99578
2.99609
2.99627
2.99631
2.9962
2.99598
2.9957
2.99543
2.9952
2.99506
2.995
2.99504
2.99514
2.99531
2.9955
2.99572
2.99593
2.99613
2.99632
2.99648
2.99662
2.99674
2.99684
2.99692
2.99699
2.99704
2.99709
2.99712
2.99715
2.99717
2.99718
2.99719
2.9972
2.9972
2.9972
2.9972
2.9972
2.9972
2.9972
2.9972
2.9972
2.9972
2.9972
2.99721
2.99722
2.99724
2.99726
2.99728
2.99731
2.99733
2.99736
2.9974
2.99743
2.99745
2.99748
2.9975
2.99751
2.99751
2.99854
2.99854
2.99853
2.99853
2.99851
2.9985
2.99848
2.99847
2.99849
2.99853
2.99862
2.99876
2.99896
2.99923
2.99957
2.99998
3.00043
3.00091
3.0014
3.00188
3.00232
3.00269
3.00298
3.00316
3.00321
3.00314
3.00295
3.00264
3.00221
3.0017
3.00111
3.00047
2.99979
2.99911
2.99844
2.99781
2.99724
2.99673
2.99632
2.996
2.99578
2.99567
2.99566
2.99573
2.99586
2.99603
2.9962
2.99636
2.99648
2.99655
2.99657
2.99656
2.99652
2.99647
2.99644
2.99643
2.99645
2.9965
2.99658
2.99668
2.99679
2.99691
2.99704
2.99716
2.99728
2.99738
2.99748
2.99757
2.99764
2.99769
2.99773
2.99776
2.99777
2.99777
2.99775
2.99773
2.9977
2.99766
2.99762
2.99758
2.99754
2.9975
2.99747
2.99744
2.99742
2.99741
2.9974
2.9974
2.99741
2.99742
2.99744
2.99747
2.99751
2.99757
2.99763
2.99771
2.9978
2.99789
2.99799
2.99809
2.99819
2.99828
2.99837
2.99844
2.9985
2.99855
2.99859
2.99863
2.99865
2.99866
2.99866
2.99865
2.99863
2.99859
2.99854
2.99849
2.99842
2.99834
2.99825
2.99815
2.99804
2.99792
2.99779
2.99764
2.99748
2.99731
2.99714
2.99696
2.99679
2.99664
2.99651
2.99641
2.99634
2.9963
2.99629
2.99631
2.99635
2.99641
2.99646
2.99652
2.99657
2.99662
2.99667
2.99672
2.99676
2.99682
2.99687
2.99694
2.99701
2.9971
2.99719
2.99729
2.99739
2.9975
2.99762
2.99775
2.99787
2.998
2.99814
2.99828
2.99843
2.99859
2.99876
2.99895
2.99915
2.99937
2.9996
2.99985
3.00012
3.00039
3.00066
3.00092
3.00117
3.00138
3.00154
3.00165
3.00169
3.00166
3.00155
3.00136
3.00108
3.00072
3.00029
2.99979
2.99923
2.99862
2.99798
2.99734
2.99671
2.99613
2.99563
2.99524
2.99497
2.99485
2.99487
2.99501
2.99525
2.99553
2.9958
2.996
2.99611
2.9961
2.99598
2.99578
2.99555
2.99533
2.99516
2.99507
2.99506
2.99512
2.99524
2.99541
2.9956
2.9958
2.996
2.99618
2.99635
2.99649
2.99662
2.99673
2.99682
2.9969
2.99696
2.99702
2.99706
2.9971
2.99712
2.99715
2.99716
2.99717
2.99718
2.99718
2.99719
2.99719
2.99719
2.99719
2.99719
2.99719
2.99719
2.99719
2.9972
2.99721
2.99722
2.99723
2.99725
2.99728
2.9973
2.99733
2.99736
2.99739
2.99742
2.99745
2.99747
2.99749
2.9975
2.99751
2.99852
2.99852
2.99851
2.9985
2.9985
2.99849
2.99849
2.9985
2.99854
2.99862
2.99874
2.99892
2.99915
2.99944
2.99978
3.00016
3.00057
3.00099
3.0014
3.00178
3.00211
3.00237
3.00254
3.00262
3.00261
3.0025
3.0023
3.00202
3.00167
3.00126
3.00081
3.00032
2.9998
2.99927
2.99875
2.99823
2.99773
2.99727
2.99686
2.99651
2.99622
2.99602
2.99589
2.99584
2.99586
2.99592
2.99601
2.99612
2.99622
2.9963
2.99637
2.99642
2.99646
2.99649
2.99653
2.99658
2.99665
2.99673
2.99681
2.9969
2.99699
2.99708
2.99717
2.99726
2.99734
2.99742
2.99749
2.99756
2.99761
2.99765
2.99768
2.99769
2.99769
2.99769
2.99767
2.99764
2.99761
2.99758
2.99755
2.99751
2.99748
2.99746
2.99744
2.99743
2.99742
2.99742
2.99742
2.99743
2.99744
2.99746
2.99748
2.9975
2.99753
2.99758
2.99763
2.99769
2.99777
2.99786
2.99795
2.99805
2.99815
2.99825
2.99834
2.99843
2.99851
2.99857
2.99862
2.99866
2.99869
2.99869
2.99869
2.99866
2.99862
2.99856
2.99849
2.99841
2.99831
2.99821
2.99811
2.99801
2.99791
2.9978
2.99769
2.99758
2.99746
2.99732
2.99718
2.99704
2.9969
2.99677
2.99665
2.99655
2.99647
2.99642
2.99639
2.99639
2.99641
2.99643
2.99647
2.99651
2.99654
2.99658
2.99663
2.99667
2.99672
2.99677
2.99683
2.99691
2.99699
2.99708
2.99718
2.99728
2.9974
2.99752
2.99765
2.99778
2.99792
2.99806
2.99821
2.99837
2.99853
2.99871
2.9989
2.9991
2.99932
2.99955
2.99979
3.00004
3.00028
3.00052
3.00075
3.00094
3.0011
3.00121
3.00128
3.00128
3.00123
3.00111
3.00094
3.00071
3.00043
3.00012
2.99976
2.99936
2.99894
2.99848
2.99801
2.99752
2.99704
2.99658
2.99617
2.99583
2.99557
2.99542
2.99538
2.99543
2.99555
2.9957
2.99584
2.99594
2.99595
2.99589
2.99575
2.99557
2.99538
2.99522
2.99511
2.99507
2.99511
2.9952
2.99534
2.99551
2.9957
2.99589
2.99607
2.99624
2.99638
2.99651
2.99662
2.99672
2.9968
2.99687
2.99694
2.99699
2.99703
2.99707
2.9971
2.99712
2.99714
2.99715
2.99716
2.99717
2.99717
2.99717
2.99718
2.99718
2.99718
2.99718
2.99718
2.99719
2.99719
2.9972
2.99721
2.99723
2.99725
2.99727
2.9973
2.99733
2.99736
2.99739
2.99742
2.99744
2.99746
2.99748
2.99749
2.9975
2.99849
2.99849
2.99848
2.99848
2.99848
2.99849
2.99851
2.99856
2.99863
2.99875
2.99891
2.99912
2.99937
2.99967
3
3.00035
3.00071
3.00105
3.00136
3.00163
3.00184
3.00197
3.00204
3.00203
3.00195
3.00181
3.00162
3.00138
3.00111
3.00082
3.0005
3.00017
2.99981
2.99944
2.99905
2.99865
2.99823
2.99781
2.99741
2.99702
2.99667
2.99638
2.99615
2.99598
2.99588
2.99584
2.99585
2.9959
2.99598
2.99607
2.99618
2.99629
2.9964
2.99652
2.99663
2.99674
2.99685
2.99695
2.99704
2.99712
2.99719
2.99725
2.99731
2.99737
2.99742
2.99747
2.99751
2.99755
2.99759
2.99761
2.99762
2.99763
2.99762
2.9976
2.99758
2.99755
2.99752
2.99749
2.99747
2.99744
2.99743
2.99742
2.99741
2.99741
2.99742
2.99743
2.99745
2.99746
2.99747
2.99749
2.99751
2.99752
2.99755
2.99758
2.99763
2.99768
2.99775
2.99783
2.99792
2.99802
2.99812
2.99822
2.99833
2.99842
2.99851
2.99859
2.99865
2.99869
2.99872
2.99872
2.9987
2.99866
2.9986
2.99852
2.99842
2.99831
2.9982
2.99809
2.99798
2.99788
2.99778
2.99769
2.9976
2.99752
2.99743
2.99733
2.99723
2.99712
2.99701
2.9969
2.99679
2.99669
2.99661
2.99655
2.99651
2.99648
2.99647
2.99647
2.99648
2.9965
2.99652
2.99655
2.99658
2.99662
2.99667
2.99673
2.99679
2.99687
2.99696
2.99706
2.99716
2.99728
2.99741
2.99754
2.99768
2.99782
2.99797
2.99813
2.9983
2.99847
2.99866
2.99886
2.99907
2.99929
2.99952
2.99976
3
3.00023
3.00045
3.00064
3.0008
3.00092
3.00098
3.00099
3.00095
3.00084
3.00069
3.0005
3.00027
3.00003
2.99976
2.99949
2.99922
2.99894
2.99865
2.99835
2.99804
2.99771
2.99737
2.99704
2.99671
2.99643
2.99619
2.99601
2.99591
2.99587
2.99588
2.99591
2.99592
2.99591
2.99583
2.99571
2.99555
2.99538
2.99522
2.99511
2.99506
2.99508
2.99515
2.99528
2.99544
2.99562
2.9958
2.99598
2.99614
2.99629
2.99642
2.99653
2.99662
2.99671
2.99678
2.99685
2.99691
2.99696
2.997
2.99704
2.99707
2.99709
2.99711
2.99713
2.99714
2.99715
2.99715
2.99716
2.99716
2.99716
2.99717
2.99717
2.99717
2.99718
2.99718
2.99719
2.99721
2.99722
2.99724
2.99726
2.99729
2.99732
2.99735
2.99738
2.99741
2.99743
2.99746
2.99747
2.99748
2.99749
2.99845
2.99845
2.99845
2.99846
2.99847
2.9985
2.99856
2.99864
2.99876
2.99891
2.99911
2.99935
2.99962
2.99992
3.00023
3.00053
3.00081
3.00107
3.00127
3.00142
3.0015
3.00152
3.00148
3.00139
3.00126
3.0011
3.00093
3.00075
3.00057
3.00039
3.00021
3.00003
2.99983
2.9996
2.99934
2.99904
2.9987
2.99832
2.99792
2.99751
2.99711
2.99674
2.99641
2.99614
2.99594
2.9958
2.99573
2.99573
2.99578
2.99588
2.99602
2.99618
2.99636
2.99655
2.99673
2.99689
2.99704
2.99716
2.99725
2.99732
2.99738
2.99742
2.99745
2.99747
2.9975
2.99752
2.99754
2.99756
2.99757
2.99758
2.99758
2.99756
2.99755
2.99752
2.9975
2.99747
2.99744
2.99741
2.99739
2.99738
2.99737
2.99737
2.99738
2.9974
2.99742
2.99744
2.99746
2.99748
2.9975
2.99751
2.99753
2.99754
2.99756
2.99759
2.99762
2.99767
2.99773
2.9978
2.99789
2.99798
2.99809
2.9982
2.99831
2.99842
2.99852
2.9986
2.99867
2.99872
2.99874
2.99874
2.9987
2.99865
2.99856
2.99846
2.99834
2.99821
2.99808
2.99796
2.99785
2.99775
2.99766
2.99759
2.99752
2.99746
2.99741
2.99734
2.99728
2.9972
2.99711
2.99702
2.99693
2.99684
2.99676
2.99669
2.99662
2.99657
2.99654
2.99651
2.9965
2.99649
2.9965
2.99651
2.99654
2.99657
2.99662
2.99668
2.99675
2.99683
2.99693
2.99703
2.99715
2.99728
2.99741
2.99756
2.99771
2.99787
2.99804
2.99822
2.99841
2.9986
2.99881
2.99903
2.99926
2.9995
2.99974
2.99997
3.0002
3.00041
3.00059
3.00073
3.00081
3.00084
3.0008
3.0007
3.00055
3.00035
3.00011
2.99986
2.99959
2.99934
2.9991
2.99889
2.9987
2.99854
2.99838
2.99823
2.99807
2.9979
2.99769
2.99747
2.99723
2.997
2.99678
2.9966
2.99645
2.99633
2.99624
2.99615
2.99605
2.99593
2.99576
2.99558
2.99539
2.99521
2.99508
2.99501
2.99501
2.99507
2.99518
2.99534
2.99552
2.99571
2.99589
2.99606
2.99621
2.99634
2.99645
2.99654
2.99663
2.9967
2.99677
2.99683
2.99688
2.99693
2.99697
2.99701
2.99704
2.99707
2.99709
2.9971
2.99712
2.99713
2.99713
2.99714
2.99714
2.99715
2.99715
2.99716
2.99716
2.99717
2.99717
2.99719
2.9972
2.99721
2.99723
2.99726
2.99728
2.99731
2.99734
2.99737
2.9974
2.99743
2.99745
2.99746
2.99747
2.99748
2.99842
2.99843
2.99843
2.99845
2.99849
2.99854
2.99863
2.99876
2.99892
2.99912
2.99935
2.99961
2.99989
3.00017
3.00044
3.00068
3.00088
3.00103
3.00111
3.00114
3.0011
3.00101
3.00088
3.00073
3.00056
3.0004
3.00026
3.00014
3.00005
2.99999
2.99995
2.9999
2.99984
2.99974
2.99959
2.99939
2.99911
2.99878
2.99839
2.99796
2.99752
2.99709
2.99668
2.99633
2.99604
2.99582
2.99568
2.99563
2.99565
2.99575
2.99591
2.99611
2.99634
2.99659
2.99682
2.99703
2.9972
2.99734
2.99744
2.99751
2.99755
2.99757
2.99758
2.99758
2.99758
2.99758
2.99758
2.99757
2.99757
2.99755
2.99754
2.99751
2.99748
2.99745
2.99742
2.99739
2.99736
2.99734
2.99732
2.99732
2.99732
2.99733
2.99735
2.99738
2.99741
2.99744
2.99747
2.99749
2.99752
2.99753
2.99754
2.99756
2.99757
2.99759
2.99762
2.99766
2.99771
2.99778
2.99786
2.99796
2.99807
2.99819
2.9983
2.99842
2.99852
2.99862
2.99869
2.99873
2.99875
2.99873
2.99869
2.99861
2.99851
2.99838
2.99825
2.99811
2.99797
2.99784
2.99773
2.99763
2.99755
2.9975
2.99745
2.99742
2.99739
2.99735
2.99732
2.99727
2.99721
2.99714
2.99707
2.99698
2.9969
2.99682
2.99674
2.99667
2.99661
2.99656
2.99652
2.9965
2.99649
2.99649
2.9965
2.99653
2.99658
2.99664
2.99671
2.9968
2.9969
2.99701
2.99714
2.99728
2.99742
2.99758
2.99775
2.99793
2.99812
2.99832
2.99853
2.99876
2.99899
2.99923
2.99947
2.99972
2.99996
3.00019
3.0004
3.00057
3.00069
3.00076
3.00076
3.00069
3.00055
3.00035
3.0001
2.99981
2.99951
2.99921
2.99892
2.99868
2.99848
2.99833
2.99823
2.99818
2.99815
2.99814
2.99811
2.99806
2.99798
2.99786
2.9977
2.99752
2.99733
2.99714
2.99696
2.99679
2.99662
2.99644
2.99623
2.99601
2.99576
2.99551
2.99528
2.99509
2.99497
2.99492
2.99496
2.99505
2.9952
2.99539
2.99558
2.99578
2.99597
2.99613
2.99627
2.99639
2.99648
2.99656
2.99663
2.9967
2.99676
2.99681
2.99686
2.99691
2.99695
2.99698
2.99701
2.99704
2.99706
2.99708
2.99709
2.9971
2.99711
2.99712
2.99713
2.99713
2.99714
2.99714
2.99715
2.99715
2.99716
2.99718
2.99719
2.99721
2.99723
2.99725
2.99728
2.9973
2.99733
2.99736
2.99739
2.99742
2.99744
2.99745
2.99746
2.99747
2.9984
2.99841
2.99843
2.99847
2.99853
2.99862
2.99875
2.99891
2.99912
2.99935
2.99961
2.99988
3.00015
3.0004
3.00061
3.00077
3.00088
3.00091
3.00088
3.00079
3.00065
3.00047
3.00026
3.00006
2.99988
2.99974
2.99964
2.99959
2.99959
2.99964
2.99971
2.99978
2.99983
2.99984
2.99979
2.99966
2.99944
2.99915
2.99877
2.99835
2.99788
2.99741
2.99696
2.99654
2.99618
2.9959
2.9957
2.9956
2.9956
2.99569
2.99586
2.99609
2.99635
2.99663
2.9969
2.99715
2.99734
2.9975
2.9976
2.99766
2.99769
2.9977
2.9977
2.99768
2.99766
2.99764
2.99762
2.99759
2.99757
2.99754
2.99751
2.99747
2.99743
2.99739
2.99736
2.99732
2.9973
2.99728
2.99727
2.99727
2.99728
2.9973
2.99733
2.99736
2.9974
2.99744
2.99747
2.9975
2.99752
2.99754
2.99755
2.99756
2.99757
2.99759
2.99761
2.99765
2.9977
2.99776
2.99785
2.99795
2.99806
2.99818
2.9983
2.99842
2.99853
2.99862
2.99869
2.99873
2.99874
2.99871
2.99865
2.99855
2.99844
2.9983
2.99815
2.998
2.99786
2.99773
2.99762
2.99753
2.99747
2.99742
2.9974
2.99738
2.99737
2.99737
2.99735
2.99733
2.9973
2.99725
2.99719
2.99712
2.99704
2.99695
2.99686
2.99678
2.9967
2.99662
2.99656
2.99651
2.99648
2.99647
2.99647
2.9965
2.99654
2.9966
2.99667
2.99676
2.99687
2.99699
2.99713
2.99728
2.99744
2.99762
2.99781
2.99801
2.99822
2.99845
2.99869
2.99893
2.99919
2.99945
2.99971
2.99996
3.00019
3.0004
3.00057
3.00069
3.00075
3.00073
3.00064
3.00047
3.00023
2.99994
2.9996
2.99925
2.9989
2.99857
2.99829
2.99807
2.99792
2.99784
2.99783
2.99787
2.99796
2.99805
2.99814
2.9982
2.99822
2.99818
2.9981
2.99797
2.99781
2.99763
2.99744
2.99723
2.99701
2.99675
2.99647
2.99616
2.99583
2.99551
2.99523
2.99502
2.99489
2.99486
2.99491
2.99504
2.99521
2.99541
2.99563
2.99584
2.99603
2.99619
2.99632
2.99643
2.99651
2.99658
2.99664
2.9967
2.99675
2.9968
2.99684
2.99689
2.99692
2.99696
2.99699
2.99701
2.99704
2.99705
2.99707
2.99708
2.99709
2.9971
2.99711
2.99711
2.99712
2.99713
2.99713
2.99714
2.99715
2.99716
2.99718
2.9972
2.99722
2.99724
2.99727
2.99729
2.99732
2.99735
2.99738
2.9974
2.99742
2.99744
2.99745
2.99745
2.99841
2.99843
2.99847
2.99853
2.99862
2.99874
2.99891
2.99911
2.99935
2.99961
2.99988
3.00015
3.00039
3.00058
3.00073
3.0008
3.0008
3.00072
3.00058
3.00038
3.00015
2.99989
2.99965
2.99942
2.99925
2.99913
2.99909
2.99911
2.9992
2.99933
2.9995
2.99966
2.99981
2.9999
2.99992
2.99985
2.99968
2.99942
2.99907
2.99865
2.99819
2.9977
2.99722
2.99677
2.99637
2.99604
2.99581
2.99567
2.99564
2.99571
2.99587
2.99611
2.99639
2.99669
2.99698
2.99724
2.99745
2.99761
2.99772
2.99779
2.99781
2.99781
2.9978
2.99777
2.99773
2.9977
2.99766
2.99762
2.99757
2.99753
2.99749
2.99744
2.99739
2.99735
2.99731
2.99727
2.99725
2.99723
2.99723
2.99723
2.99725
2.99728
2.99731
2.99735
2.99739
2.99743
2.99746
2.99749
2.99752
2.99754
2.99755
2.99756
2.99757
2.99758
2.99761
2.99764
2.99769
2.99776
2.99784
2.99794
2.99806
2.99818
2.9983
2.99842
2.99853
2.99862
2.99868
2.99871
2.9987
2.99866
2.99858
2.99848
2.99835
2.9982
2.99805
2.9979
2.99776
2.99764
2.99754
2.99746
2.9974
2.99737
2.99736
2.99736
2.99736
2.99738
2.99738
2.99738
2.99737
2.99734
2.99729
2.99723
2.99716
2.99707
2.99698
2.99688
2.99678
2.99669
2.99661
2.99654
2.99649
2.99646
2.99646
2.99647
2.99651
2.99656
2.99664
2.99673
2.99684
2.99697
2.99712
2.99728
2.99746
2.99766
2.99787
2.9981
2.99834
2.99859
2.99886
2.99913
2.99941
2.99968
2.99995
3.00019
3.00041
3.00058
3.0007
3.00076
3.00073
3.00063
3.00044
3.00018
2.99985
2.99947
2.99908
2.99868
2.9983
2.99798
2.99772
2.99754
2.99744
2.99743
2.9975
2.99763
2.9978
2.99799
2.99816
2.9983
2.99839
2.99843
2.9984
2.99833
2.99821
2.99806
2.99787
2.99766
2.9974
2.9971
2.99676
2.99638
2.99598
2.99559
2.99526
2.99501
2.99486
2.99482
2.99488
2.99501
2.99521
2.99543
2.99566
2.99587
2.99607
2.99623
2.99636
2.99646
2.99653
2.99659
2.99665
2.9967
2.99674
2.99679
2.99683
2.99687
2.9969
2.99694
2.99697
2.99699
2.99701
2.99703
2.99705
2.99706
2.99707
2.99708
2.99709
2.99709
2.9971
2.99711
2.99712
2.99713
2.99714
2.99715
2.99717
2.99718
2.99721
2.99723
2.99725
2.99728
2.99731
2.99734
2.99737
2.99739
2.99741
2.99743
2.99744
2.99744
2.99847
2.99851
2.99856
2.99864
2.99876
2.99892
2.99912
2.99935
2.99961
2.99988
3.00015
3.00039
3.00058
3.00071
3.00076
3.00074
3.00063
3.00045
3.00021
2.99992
2.99962
2.99932
2.99904
2.99882
2.99867
2.9986
2.99861
2.9987
2.99886
2.99907
2.99931
2.99955
2.99975
2.9999
2.99997
2.99994
2.99982
2.99959
2.99927
2.99888
2.99844
2.99796
2.99748
2.99702
2.9966
2.99625
2.99599
2.99582
2.99576
2.99581
2.99596
2.99619
2.99646
2.99676
2.99706
2.99732
2.99754
2.9977
2.99781
2.99788
2.9979
2.9979
2.99788
2.99784
2.9978
2.99775
2.99769
2.99764
2.99759
2.99753
2.99748
2.99742
2.99737
2.99732
2.99728
2.99725
2.99722
2.99721
2.9972
2.99721
2.99723
2.99726
2.99729
2.99733
2.99737
2.99741
2.99745
2.99748
2.9975
2.99752
2.99754
2.99755
2.99756
2.99758
2.99761
2.99764
2.99769
2.99776
2.99785
2.99795
2.99807
2.99819
2.99831
2.99843
2.99853
2.99861
2.99865
2.99867
2.99865
2.99859
2.9985
2.99839
2.99825
2.9981
2.99795
2.99781
2.99768
2.99756
2.99747
2.9974
2.99736
2.99734
2.99733
2.99734
2.99736
2.99739
2.99741
2.99742
2.99742
2.99741
2.99738
2.99733
2.99726
2.99718
2.99708
2.99698
2.99687
2.99676
2.99666
2.99658
2.99652
2.99647
2.99645
2.99646
2.99649
2.99654
2.99661
2.99671
2.99682
2.99696
2.99712
2.99729
2.99749
2.99771
2.99795
2.99821
2.99848
2.99876
2.99905
2.99935
2.99964
2.99992
3.00018
3.00041
3.0006
3.00072
3.00078
3.00075
3.00064
3.00045
3.00016
2.99981
2.99941
2.99898
2.99854
2.99812
2.99775
2.99744
2.99722
2.99709
2.99706
2.99712
2.99726
2.99745
2.99768
2.99793
2.99816
2.99835
2.9985
2.99858
2.99861
2.99859
2.99852
2.99841
2.99825
2.99805
2.9978
2.99748
2.99709
2.99666
2.9962
2.99575
2.99536
2.99505
2.99487
2.99481
2.99486
2.995
2.9952
2.99543
2.99567
2.9959
2.9961
2.99626
2.99639
2.99648
2.99655
2.9966
2.99665
2.9967
2.99674
2.99678
2.99682
2.99686
2.99689
2.99692
2.99695
2.99697
2.99699
2.99701
2.99702
2.99704
2.99705
2.99706
2.99707
2.99708
2.99708
2.99709
2.9971
2.99711
2.99712
2.99714
2.99715
2.99717
2.99719
2.99722
2.99724
2.99727
2.9973
2.99733
2.99735
2.99738
2.9974
2.99741
2.99742
2.99743
2.9986
2.99864
2.99871
2.99882
2.99896
2.99915
2.99937
2.99962
2.99989
3.00015
3.00039
3.00058
3.0007
3.00075
3.00071
3.00058
3.00037
3.0001
2.99977
2.99942
2.99907
2.99875
2.99848
2.99828
2.99817
2.99815
2.99822
2.99837
2.99859
2.99886
2.99914
2.99942
2.99966
2.99984
2.99994
2.99994
2.99985
2.99966
2.99938
2.99902
2.99862
2.99818
2.99772
2.99728
2.99687
2.99652
2.99624
2.99606
2.99597
2.996
2.99612
2.99632
2.99657
2.99685
2.99713
2.99738
2.99759
2.99776
2.99787
2.99793
2.99796
2.99796
2.99793
2.99789
2.99784
2.99779
2.99773
2.99766
2.9976
2.99754
2.99748
2.99742
2.99736
2.99731
2.99727
2.99724
2.99721
2.9972
2.9972
2.99721
2.99723
2.99725
2.99728
2.99732
2.99736
2.99739
2.99743
2.99746
2.99748
2.9975
2.99752
2.99753
2.99755
2.99757
2.99761
2.99765
2.99771
2.99778
2.99787
2.99797
2.99808
2.9982
2.99832
2.99843
2.99851
2.99858
2.99861
2.99861
2.99857
2.99851
2.99841
2.99829
2.99815
2.99801
2.99786
2.99773
2.99761
2.99751
2.99743
2.99737
2.99734
2.99732
2.99733
2.99734
2.99737
2.9974
2.99742
2.99745
2.99746
2.99746
2.99744
2.99741
2.99735
2.99727
2.99718
2.99707
2.99695
2.99684
2.99673
2.99663
2.99655
2.9965
2.99646
2.99646
2.99648
2.99652
2.9966
2.99669
2.99681
2.99695
2.99712
2.99732
2.99754
2.99778
2.99805
2.99833
2.99863
2.99894
2.99926
2.99958
2.99988
3.00016
3.00041
3.0006
3.00074
3.0008
3.00078
3.00067
3.00047
3.00018
2.99982
2.9994
2.99894
2.99847
2.99801
2.9976
2.99725
2.99699
2.99682
2.99675
2.99678
2.99689
2.99708
2.99733
2.9976
2.99787
2.99813
2.99835
2.99853
2.99865
2.99873
2.99876
2.99874
2.99868
2.99858
2.99842
2.99818
2.99787
2.99747
2.99699
2.99648
2.99597
2.99551
2.99515
2.99492
2.99482
2.99485
2.99498
2.99518
2.99542
2.99567
2.99591
2.99611
2.99628
2.9964
2.99649
2.99656
2.99661
2.99665
2.99669
2.99674
2.99677
2.99681
2.99685
2.99688
2.99691
2.99693
2.99695
2.99697
2.99699
2.99701
2.99702
2.99703
2.99704
2.99705
2.99706
2.99707
2.99708
2.99709
2.9971
2.99711
2.99712
2.99714
2.99716
2.99718
2.9972
2.99723
2.99726
2.99729
2.99731
2.99734
2.99736
2.99738
2.9974
2.99741
2.99741
2.99881
2.99886
2.99895
2.99907
2.99923
2.99944
2.99967
2.99992
3.00017
3.0004
3.00058
3.00071
3.00075
3.0007
3.00057
3.00034
3.00004
2.99968
2.99929
2.9989
2.99853
2.99822
2.99797
2.99781
2.99774
2.99778
2.9979
2.99811
2.99837
2.99867
2.99898
2.99928
2.99953
2.99972
2.99983
2.99985
2.99978
2.99963
2.99939
2.99909
2.99874
2.99835
2.99795
2.99754
2.99716
2.99683
2.99656
2.99636
2.99626
2.99625
2.99634
2.9965
2.99671
2.99696
2.99721
2.99744
2.99764
2.99779
2.9979
2.99797
2.99799
2.99799
2.99797
2.99793
2.99787
2.99781
2.99775
2.99768
2.99761
2.99755
2.99748
2.99742
2.99737
2.99732
2.99728
2.99725
2.99723
2.99722
2.99721
2.99722
2.99723
2.99725
2.99728
2.99731
2.99734