# vtk DataFile Version 2.0
HPC Tutorials: Michael Bader, Kaveh Rahnema, Oliver Meister
ASCII
DATASET RECTILINEAR_GRID
DIMENSIONS 17 17 1
X_COORDINATES 17 float
0
0.005
0.01
0.015
0.02
0.025
0.03
0.035
0.04
0.045
0.05
0.055
0.06
0.065
0.07
0.075
0.08
Y_COORDINATES 17 float
0
0.005
0.01
0.015
0.02
0.025
0.03
0.035
0.04
0.045
0.05
0.055
0.06
0.065
0.07
0.075
0.08
Z_COORDINATES 1 float
0
CELL_DATA 256
SCALARS H float 1
LOOKUP_TABLE default
102.003
101.962
101.923
101.934
101.976
101.991
101.972
101.946
101.948
101.952
101.952
101.949
101.937
101.946
101.93
101.937
101.962
101.957
101.963
101.978
101.974
101.962
101.942
101.958
101.96
101.961
101.96
101.926
101.966
101.907
101.959
101.923
101.923
101.963
102.009
101.999
101.96
101.918
101.951
101.971
101.979
101.975
101.912
101.995
101.871
102.004
101.879
101.949
101.934
101.978
101.999
101.978
101.922
101.948
101.975
101.996
101.989
101.892
102.025
101.831
102.076
101.81
102.007
101.898
101.976
101.974
101.96
101.922
101.956
101.986
102.011
101.998
101.869
102.049
101.793
102.173
101.729
102.095
101.828
101.935
101.991
101.962
101.918
101.948
101.986
102.021
102.006
101.851
102.066
101.766
102.285
101.649
102.209
101.735
101.941
101.91
101.972
101.942
101.951
101.975
102.011
102.006
101.845
102.074
101.752
102.391
101.585
102.331
101.62
101.973
102.014
101.781
101.946
101.958
101.971
101.996
101.998
101.851
102.074
101.748
102.457
101.545
102.434
101.502
102.053
102.148
101.399
102.12
101.948
101.96
101.979
101.989
101.869
102.066
101.752
102.457
101.532
102.493
101.41
102.157
102.295
101.074
102.911
101.243
101.952
101.961
101.975
101.892
102.049
101.766
102.391
101.545
102.493
101.375
102.234
102.423
100.883
103.732
99.7656
102.556
101.952
101.96
101.912
102.025
101.793
102.285
101.585
102.434
101.41
102.234
102.476
100.808
104.355
98.5781
104.799
100.273
101.949
101.926
101.995
101.831
102.173
101.649
102.331
101.502
102.157
102.423
100.808
104.576
97.8568
106.572
97.7659
103.141
101.937
101.966
101.871
102.076
101.729
102.209
101.62
102.053
102.295
100.883
104.355
97.8568
107.174
96.31
106.289
99.3599
101.946
101.907
102.004
101.81
102.095
101.735
101.973
102.148
101.074
103.732
98.5781
106.572
96.3099
107.428
97.2685
102.6
101.93
101.959
101.879
102.007
101.828
101.941
102.014
101.399
102.911
99.7656
104.799
97.7659
106.289
97.2685
104.403
101.079
101.937
101.923
101.949
101.898
101.935
101.91
101.781
102.12
101.243
102.556
100.273
103.141
99.3599
102.6
101.079
103.783
SCALARS U float 1
LOOKUP_TABLE default
-2.34951e-005
-8.26447e-006
6.20284e-005
6.29588e-005
1.07779e-005
2.38366e-005
0.000142789
0.000266018
0.000303038
0.000342751
0.00034579
0.000423169
0.000356956
0.000334452
0.000198205
6.67854e-005
9.98484e-006
3.9551e-005
1.91574e-005
-1.91842e-005
-1.31926e-005
7.63968e-005
0.000174421
0.000198245
0.000280176
0.00024721
0.000458142
0.000316209
0.000479422
0.000259031
0.000228015
0.000114056
1.81853e-005
5.29404e-007
-7.59714e-005
-8.48188e-005
3.18925e-005
0.000135295
0.000100521
0.000145651
6.2367e-005
0.000439511
0.000217028
0.000611411
0.000235061
0.000409469
0.00027747
-7.17002e-005
-7.98361e-006
-8.94847e-005
-0.000142486
-5.46664e-005
6.98346e-005
3.57358e-005
3.01649e-005
-0.000159269
0.000330847
4.30621e-005
0.000686236
0.00010901
0.000552323
0.000407551
-2.71622e-005
0.000541914
-3.94382e-005
-0.000118094
-9.70921e-005
-1.85632e-005
-6.00975e-005
-8.16704e-005
-0.000344616
0.000186294
-0.000177328
0.000662575
-0.000142873
0.000576603
0.000436949
-4.98603e-005
0.00113772
-0.000936635
-3.36925e-005
-6.1602e-005
-3.51261e-005
-0.000113653
-0.000179412
-0.000491126
2.67222e-005
-0.000386262
0.000558478
-0.000488824
0.000423266
0.000279893
-0.000194271
0.00179919
-0.00159446
0.00216727
-2.61104e-005
-2.03499e-005
-9.18087e-005
-0.000180784
-0.000523363
-0.0001127
-0.000558037
0.000402312
-0.000828777
0.000125784
-8.3204e-005
-0.000502239
0.00230687
-0.00257928
0.00397022
-0.00336033
-1.65604e-005
-7.22696e-005
-0.000138195
-0.000425126
-0.00015435
-0.000623776
0.000240398
-0.00105115
-0.000188876
-0.000538686
-0.000942575
0.0024751
-0.00381535
0.00577052
-0.00579421
0.00544263
-2.97886e-005
-9.67502e-005
-0.000288151
-0.000127753
-0.00055102
0.000141943
-0.00106292
-0.000366925
-0.00087578
-0.00136539
0.002297
-0.0050665
0.00693618
-0.00893153
0.00915191
-0.00681153
-3.15265e-005
-0.000134732
-7.80871e-005
-0.000392596
0.000110047
-0.00086019
-0.000327157
-0.000915937
-0.00155744
0.00195988
-0.00589965
0.00720226
-0.0119924
0.0124293
-0.0113285
0.0079943
-6.59385e-006
-1.96048e-005
-0.000192892
0.000115596
-0.000540693
-0.0001301
-0.000648085
-0.0013877
0.00169732
-0.00586884
0.00680718
-0.0138695
0.0140722
-0.0161528
0.0117483
-0.00695391
-1.45564e-005
-2.40254e-005
0.000127875
-0.00021655
9.12708e-005
-0.000235323
-0.000918009
0.00159441
-0.004881
0.00620887
-0.0134663
0.0138791
-0.0188585
0.0140906
-0.01242
0.00160281
4.77385e-005
9.81284e-005
1.81398e-005
0.000234701
0.0001198
-0.000355369
0.00153292
-0.00329612
0.00552463
-0.0107373
0.0124994
-0.0179315
0.0148465
-0.0155044
0.000335047
0.00265673
1.30138e-005
0.000113531
0.000258613
0.00029934
0.000101658
0.00133257
-0.00162404
0.00449667
-0.0068162
0.0103117
-0.0135932
0.013901
-0.0144254
0.0027979
0.000336505
-0.0151436
8.16797e-005
0.000181646
0.000304776
0.000345315
0.00095424
-0.000257829
0.00298195
-0.00285904
0.007028
-0.00730855
0.0109222
-0.0102465
0.00584956
-0.00118074
-0.0103308
0.016027
5.78426e-005
0.000208792
0.000349599
0.00057362
0.000514972
0.00138084
0.000220559
0.00296691
-0.000849181
0.00521943
-0.0022848
0.00407748
-0.00213509
0.000131693
0.00714762
-0.00809704
SCALARS V float 1
LOOKUP_TABLE default
-2.35007e-005
9.97662e-006
1.8184e-005
-7.98885e-006
-3.94361e-005
-3.3699e-005
-2.61175e-005
-1.65575e-005
-2.97871e-005
-3.15299e-005
-6.58451e-006
-1.45539e-005
4.77474e-005
1.30136e-005
8.16844e-005
5.78421e-005
-8.27237e-006
3.95431e-005
5.18942e-007
-8.94883e-005
-0.000118121
-6.15946e-005
-2.03563e-005
-7.22653e-005
-9.67438e-005
-0.000134733
-1.96074e-005
-2.40114e-005
9.81407e-005
0.000113548
0.000181666
0.000208784
6.20188e-005
1.91456e-005
-7.59796e-005
-0.000142501
-9.71047e-005
-3.51463e-005
-9.17962e-005
-0.000138214
-0.000288151
-7.80742e-005
-0.000192861
0.000127892
1.81623e-005
0.000258648
0.000304802
0.00034964
6.2941e-005
-1.91918e-005
-8.48298e-005
-5.46753e-005
-1.85778e-005
-0.000113652
-0.000180788
-0.000425105
-0.000127765
-0.000392595
0.000115613
-0.000216545
0.000234713
0.000299349
0.000345343
0.000573654
1.07641e-005
-1.32023e-005
3.18888e-005
6.98333e-005
-6.00965e-005
-0.000179424
-0.00052335
-0.00015434
-0.000550996
0.000110062
-0.000540699
9.12996e-005
0.000119809
0.000101654
0.000954254
0.000514996
2.38705e-005
7.64082e-005
0.000135305
3.57337e-005
-8.16684e-005
-0.00049112
-0.000112697
-0.000623756
0.000141949
-0.000860197
-0.000130084
-0.000235332
-0.000355353
0.00133259
-0.000257855
0.00138084
0.000142818
0.000174457
0.000100542
3.01798e-005
-0.000344614
2.67182e-005
-0.00055804
0.000240395
-0.00106293
-0.000327146
-0.000648106
-0.000918005
0.00153296
-0.00162406
0.00298198
0.00022054
0.000266016
0.000198235
0.000145658
-0.000159266
0.000186297
-0.000386265
0.000402299
-0.00105116
-0.000366917
-0.000915949
-0.00138769
0.00159446
-0.00329618
0.00449672
-0.00285907
0.00296695
0.000303049
0.000280184
6.23467e-005
0.000330854
-0.000177343
0.000558482
-0.000828758
-0.000188879
-0.000875787
-0.00155744
0.00169733
-0.00488104
0.0055247
-0.00681621
0.00702804
-0.000849188
0.000342761
0.000247231
0.000439528
4.30582e-005
0.000662587
-0.000488811
0.000125782
-0.000538673
-0.00136539
0.00195989
-0.00586886
0.00620888
-0.0107373
0.0103118
-0.00730853
0.00521943
0.000345821
0.000458169
0.000217043
0.000686234
-0.000142864
0.000423259
-8.3187e-005
-0.000942582
0.00229698
-0.00589963
0.0068072
-0.0134663
0.0124994
-0.0135932
0.0109222
-0.00228481
0.000423184
0.000316206
0.000611416
0.000109041
0.000576597
0.00027991
-0.000502239
0.00247507
-0.00506649
0.00720224
-0.0138695
0.0138791
-0.0179315
0.013901
-0.0102465
0.00407749
0.000356962
0.00047944
0.000235077
0.000552309
0.000436971
-0.000194271
0.00230683
-0.00381528
0.00693615
-0.0119924
0.0140722
-0.0188585
0.0148465
-0.0144254
0.00584956
-0.00213507
0.000334456
0.000259032
0.00040945
0.000407537
-4.98632e-005
0.00179918
-0.00257921
0.00577047
-0.0089315
0.0124292
-0.0161528
0.0140906
-0.0155045
0.00279789
-0.00118074
0.00013168
0.000198202
0.000228003
0.000277479
-2.71683e-005
0.00113768
-0.00159445
0.00397017
-0.00579418
0.00915189
-0.0113285
0.0117483
-0.01242
0.00033504
0.000336493
-0.0103308
0.00714759
6.67815e-005
0.00011408
-7.1692e-005
0.000541903
-0.000936622
0.00216723
-0.00336031
0.00544259
-0.00681153
0.00799432
-0.00695391
0.00160281
0.00265672
-0.0151436
0.016027
-0.00809702
SCALARS B float 1
LOOKUP_TABLE default
1
1
1
1
1
1
1
1
1
1
1
1
1
1
1
1
1
1
1
1
1
1
1
1
1
1
1
1
1
1
1
1
1
1
1
1
1
1
1
1
1
1
1
1
1
1
1
1
1
1
1
1
1
1
1
1
1
1
1
1
1
1
1
1
1
1
1
1
1
1
1
1
1
1
1
1
1
1
1
1
1
1
1
1
1
1
1
1
1
1
1
1
1
1
1
1
1
1
1
1
1
1
1
1
1
1
1
1
1
1
1
1
1
1
1
1
1
1
1
1
1
1
1
1
1
1
1
1
1
1
1
1
1
1
1
1
1
1
1
1
1
1
1
1
1
1
1
1
1
1
1
1
1
1
1
1
1
1
1
1
1
1
1
1
1
1
1
1
1
1
1
1
1
1
1
1
1
1
1
1
1
1
1
1
1
1
1
1
1
1
1
1
1
1
1
1
1
1
1
1
1
1
1
1
1
1
1
1
1
1
1
1
1
1
1
1
1
1
1
1
1
1
1
1
1
1
1
1
1
1
1
1
1
1
1
1
1
1
1
1
1
1
1
1
1
1
1
1
1
1
1
1
1
1
1
1
