# vtk DataFile Version 2.0
HPC Tutorials: Michael Bader, Kaveh Rahnema, Oliver Meister
ASCII
DATASET RECTILINEAR_GRID
DIMENSIONS 17 17 1
X_COORDINATES 17 float
0
0.005
0.01
0.015
0.02
0.025
0.03
0.035
0.04
0.045
0.05
0.055
0.06
0.065
0.07
0.075
0.08
Y_COORDINATES 17 float
0
0.005
0.01
0.015
0.02
0.025
0.03
0.035
0.04
0.045
0.05
0.055
0.06
0.065
0.07
0.075
0.08
Z_COORDINATES 1 float
0
CELL_DATA 256
SCALARS H float 1
LOOKUP_TABLE default
101.951
101.948
101.974
101.994
101.976
101.943
101.935
101.959
101.967
101.966
101.945
101.946
101.941
101.937
101.941
101.934
101.948
101.967
101.981
101.971
101.951
101.943
101.969
101.964
101.977
101.938
101.956
101.942
101.936
101.955
101.914
101.944
101.974
101.981
101.956
101.929
101.932
101.989
101.986
101.996
101.921
101.957
101.941
101.939
101.982
101.877
101.993
101.903
101.994
101.971
101.929
101.914
101.979
101.996
102.023
101.915
101.955
101.938
101.949
102.021
101.829
102.073
101.796
101.978
101.976
101.951
101.932
101.979
101.988
102.025
101.905
101.953
101.939
101.97
102.07
101.777
102.175
101.648
102.146
101.821
101.943
101.943
101.989
101.996
102.025
101.894
101.943
101.939
101.998
102.126
101.729
102.28
101.476
102.378
101.567
102.026
101.935
101.969
101.986
102.023
101.905
101.943
101.936
102.015
102.17
101.693
102.368
101.306
102.667
101.278
102.314
101.74
101.959
101.964
101.996
101.915
101.953
101.939
102.015
102.186
101.672
102.424
101.168
102.975
101.002
102.668
101.446
101.926
101.967
101.977
101.921
101.955
101.939
101.998
102.17
101.672
102.442
101.089
103.223
100.792
103.073
101.106
101.894
101.875
101.966
101.938
101.957
101.938
101.97
102.126
101.693
102.424
101.089
103.319
100.681
103.415
100.767
101.922
102.308
101.418
101.945
101.956
101.941
101.949
102.07
101.729
102.368
101.168
103.223
100.681
103.549
100.542
102.014
102.67
100.095
102.763
101.946
101.942
101.939
102.021
101.777
102.28
101.306
102.975
100.792
103.415
100.542
102.056
102.906
99.2692
105.16
99.9173
101.941
101.936
101.982
101.829
102.175
101.476
102.667
101.002
103.073
100.767
102.014
102.906
99.0476
107.087
96.5609
103.485
101.937
101.955
101.877
102.073
101.648
102.378
101.278
102.668
101.106
101.922
102.67
99.2692
107.087
95.5993
107.972
98.7436
101.941
101.914
101.993
101.796
102.146
101.567
102.314
101.446
101.894
102.308
100.095
105.16
96.5609
107.972
96.538
104.187
101.934
101.944
101.903
101.978
101.821
102.026
101.74
101.926
101.875
101.418
102.763
99.9173
103.485
98.7436
104.187
100.984
SCALARS U float 1
LOOKUP_TABLE default
4.40663e-005
0.000143787
7.188e-005
-4.7022e-005
-3.31326e-005
0.000115334
0.000222427
0.000254084
0.000270364
0.000333047
0.000414309
0.000393608
0.0004193
0.000279677
0.000249237
5.11732e-005
-1.16174e-006
-2.57236e-005
-3.77508e-005
5.7351e-007
9.41304e-005
0.000124318
0.000146104
0.000153559
0.000248068
0.000382229
0.000348998
0.000518772
0.000254278
0.000482207
8.59564e-005
0.000162258
-4.65538e-005
-0.00015565
-9.37347e-005
8.11121e-005
0.000116858
6.98212e-005
-1.39445e-005
0.00010154
0.000302578
0.000264154
0.00056189
0.000135004
0.000732673
1.21827e-005
0.000503862
-5.78745e-005
-4.88807e-005
-0.00012115
-2.48448e-005
3.87204e-005
1.32296e-005
-0.000133993
-5.71687e-005
0.00017435
0.00013929
0.000532197
-9.97803e-005
0.000917003
-0.000181741
0.000943478
-0.000111068
0.000202102
-1.19037e-005
5.16943e-006
-8.14755e-006
-7.09809e-005
-0.00023777
-0.000191032
3.60977e-005
-1.06858e-005
0.000427362
-0.000430409
0.000963034
-0.000515309
0.00138041
-0.000296348
0.000581046
0.000274643
5.51427e-006
2.71596e-005
-6.44251e-005
-0.000268758
-0.000286255
-9.33631e-005
-0.000154611
0.000274585
-0.000797031
0.000842201
-0.000973393
0.00169931
-0.000647386
0.000957305
0.000525549
-0.000804569
-1.46446e-006
-5.17172e-005
-0.000205976
-0.000284423
-0.000174981
-0.000263768
0.000127228
-0.00108453
0.000601119
-0.00148397
0.00181056
-0.00117766
0.00113076
0.000596997
-0.00121674
0.00257962
-4.35817e-005
-0.00013852
-0.000222778
-0.000180737
-0.000303292
2.62426e-005
-0.00118541
0.000363124
-0.00189472
0.00169703
-0.00179586
0.000984712
0.000296816
-0.00190446
0.00445048
-0.00491932
-3.39514e-005
-0.000139105
-0.000137704
-0.000263363
-6.92035e-006
-0.00107026
0.000230721
-0.0020369
0.00144588
-0.0022863
0.000600254
-0.000383238
-0.00291544
0.0061393
-0.00803153
0.00905032
-4.16998e-005
-6.58982e-005
-0.000170098
1.38515e-005
-0.000787927
0.000226952
-0.00183689
0.00118808
-0.00241362
0.000250603
-0.00108099
-0.00397666
0.00695806
-0.0117357
0.0144214
-0.0137742
-4.77499e-006
-6.40634e-005
4.5934e-005
-0.000450027
0.000292496
-0.00135849
0.00101347
-0.00208632
0.000185073
-0.00129124
-0.00451981
0.00687869
-0.0147089
0.0184585
-0.0223126
0.0189891
3.91645e-006
5.75003e-005
-0.000162121
0.000331242
-0.000779808
0.000918183
-0.00142685
0.00041285
-0.00085009
-0.00409367
0.00634374
-0.015408
0.020001
-0.0302548
0.0271099
-0.0220529
1.83772e-005
1.77721e-005
0.00029684
-0.000283617
0.000825016
-0.000699484
0.000735962
-0.00010205
-0.0027595
0.00563623
-0.0133227
0.0189948
-0.03212
0.0308521
-0.032607
0.0233844
5.89402e-005
0.000192196
3.17912e-005
0.000672794
-0.000136502
0.000939865
0.000448452
-0.00106594
0.00461405
-0.00889613
0.0155318
-0.0261057
0.028874
-0.0367361
0.0280995
-0.0186151
4.49737e-005
0.00014095
0.00045573
0.000188538
0.000902694
0.000613822
0.00033347
0.00302996
-0.00356681
0.0100902
-0.0144029
0.0208391
-0.0262175
0.0245285
-0.0241407
0.0117175
7.54639e-005
0.000230037
0.000307047
0.000623074
0.000626389
0.000912383
0.00146299
0.000429564
0.00393592
-0.00206851
0.0079723
-0.00661997
0.0118047
-0.0102944
0.0041757
-0.00807879
SCALARS V float 1
LOOKUP_TABLE default
4.40652e-005
-1.16455e-006
-4.65504e-005
-4.88862e-005
-1.19105e-005
5.51735e-006
-1.46964e-006
-4.3582e-005
-3.39597e-005
-4.17129e-005
-4.78699e-006
3.91621e-006
1.83676e-005
5.89286e-005
4.49587e-005
7.54545e-005
0.000143791
-2.57277e-005
-0.00015565
-0.000121138
5.17077e-006
2.71557e-005
-5.17184e-005
-0.000138522
-0.000139123
-6.59413e-005
-6.40849e-005
5.74877e-005
1.77497e-005
0.000192159
0.000140919
0.000229992
7.1886e-005
-3.77439e-005
-9.37299e-005
-2.48527e-005
-8.14088e-006
-6.44325e-005
-0.000205956
-0.000222795
-0.00013773
-0.000170109
4.59046e-005
-0.000162117
0.000296837
3.17936e-005
0.000455698
0.000307028
-4.70123e-005
5.68884e-007
8.11223e-005
3.8732e-005
-7.0976e-005
-0.000268751
-0.000284444
-0.000180757
-0.000263379
1.38448e-005
-0.000450022
0.000331222
-0.000283615
0.000672768
0.000188533
0.000623065
-3.31396e-005
9.41448e-005
0.000116846
1.32315e-005
-0.000237773
-0.000286274
-0.000174993
-0.0003033
-6.92925e-006
-0.00078796
0.000292471
-0.000779809
0.000825014
-0.000136494
0.000902695
0.000626392
0.000115319
0.000124298
6.98205e-005
-0.00013401
-0.000191016
-9.33528e-005
-0.000263778
2.62337e-005
-0.00107028
0.00022697
-0.00135847
0.000918191
-0.000699476
0.000939877
0.00061384
0.000912414
0.000222425
0.000146111
-1.3967e-005
-5.71572e-005
3.60849e-005
-0.000154583
0.000127253
-0.0011854
0.000230745
-0.00183687
0.00101351
-0.00142682
0.000735967
0.000448457
0.000333482
0.00146302
0.000254068
0.00015354
0.000101568
0.000174369
-1.06581e-005
0.0002746
-0.00108451
0.000363151
-0.00203688
0.00118811
-0.00208632
0.000412852
-0.000102005
-0.00106592
0.00303001
0.000429587
0.00027036
0.000248085
0.000302596
0.000139311
0.000427374
-0.000797004
0.000601141
-0.00189471
0.00144588
-0.0024136
0.000185081
-0.000850075
-0.0027595
0.00461412
-0.00356679
0.00393597
0.000333058
0.000382258
0.000264184
0.000532209
-0.00043037
0.000842201
-0.00148396
0.00169705
-0.00228629
0.000250603
-0.00129121
-0.00409367
0.00563626
-0.00889612
0.0100902
-0.00206849
0.000414354
0.000349011
0.000561924
-9.97567e-005
0.000963054
-0.000973376
0.00181055
-0.00179585
0.000600284
-0.00108098
-0.00451981
0.00634377
-0.0133227
0.0155318
-0.0144029
0.00797231
0.000393643
0.000518808
0.000134989
0.000917036
-0.000515314
0.00169931
-0.00117764
0.000984721
-0.000383244
-0.00397664
0.0068787
-0.015408
0.0189948
-0.0261057
0.0208392
-0.00661998
0.000419314
0.0002543
0.000732713
-0.000181726
0.00138043
-0.000647376
0.00113079
0.000296816
-0.00291542
0.00695804
-0.0147089
0.020001
-0.03212
0.028874
-0.0262175
0.0118047
0.000279657
0.000482213
1.21886e-005
0.000943495
-0.00029633
0.00095732
0.000597003
-0.00190443
0.00613928
-0.0117357
0.0184585
-0.0302548
0.0308521
-0.0367361
0.0245285
-0.0102944
0.00024925
8.5953e-005
0.000503889
-0.00011105
0.000581054
0.00052556
-0.00121673
0.00445046
-0.00803152
0.0144214
-0.0223126
0.0271099
-0.032607
0.0280995
-0.0241407
0.00417571
5.11734e-005
0.000162284
-5.78682e-005
0.000202097
0.000274651
-0.000804573
0.00257959
-0.0049193
0.0090503
-0.0137742
0.018989
-0.0220529
0.0233843
-0.0186151
0.0117175
-0.0080788
SCALARS B float 1
LOOKUP_TABLE default
1
1
1
1
1
1
1
1
1
1
1
1
1
1
1
1
1
1
1
1
1
1
1
1
1
1
1
1
1
1
1
1
1
1
1
1
1
1
1
1
1
1
1
1
1
1
1
1
1
1
1
1
1
1
1
1
1
1
1
1
1
1
1
1
1
1
1
1
1
1
1
1
1
1
1
1
1
1
1
1
1
1
1
1
1
1
1
1
1
1
1
1
1
1
1
1
1
1
1
1
1
1
1
1
1
1
1
1
1
1
1
1
1
1
1
1
1
1
1
1
1
1
1
1
1
1
1
1
1
1
1
1
1
1
1
1
1
1
1
1
1
1
1
1
1
1
1
1
1
1
1
1
1
1
1
1
1
1
1
1
1
1
1
1
1
1
1
1
1
1
1
1
1
1
1
1
1
1
1
1
1
1
1
1
1
1
1
1
1
1
1
1
1
1
1
1
1
1
1
1
1
1
1
1
1
1
1
1
1
1
1
1
1
1
1
1
1
1
1
1
1
1
1
1
1
1
1
1
1
1
1
1
1
1
1
1
1
1
1
1
1
1
1
1
1
1
1
1
1
1
1
1
1
1
1
1
