# vtk DataFile Version 2.0
HPC Tutorials: Michael Bader, Kaveh Rahnema, Oliver Meister
ASCII
DATASET RECTILINEAR_GRID
DIMENSIONS 17 17 1
X_COORDINATES 17 float
0
0.005
0.01
0.015
0.02
0.025
0.03
0.035
0.04
0.045
0.05
0.055
0.06
0.065
0.07
0.075
0.08
Y_COORDINATES 17 float
0
0.005
0.01
0.015
0.02
0.025
0.03
0.035
0.04
0.045
0.05
0.055
0.06
0.065
0.07
0.075
0.08
Z_COORDINATES 1 float
0
CELL_DATA 256
SCALARS H float 1
LOOKUP_TABLE default
101.953
101.98
101.98
101.954
101.945
101.963
101.979
101.969
101.951
101.95
101.946
101.955
101.936
101.945
101.932
101.937
101.98
101.967
101.949
101.951
101.968
101.983
101.971
101.951
101.955
101.94
101.974
101.923
101.967
101.917
101.945
101.931
101.98
101.949
101.947
101.974
101.998
101.974
101.938
101.952
101.939
102.006
101.911
101.997
101.891
101.964
101.924
101.928
101.954
101.951
101.974
102.005
101.984
101.934
101.942
101.931
102.042
101.907
102.034
101.854
101.994
101.916
101.903
101.942
101.945
101.968
101.998
101.984
101.937
101.943
101.929
102.072
101.904
102.068
101.811
102.033
101.91
101.88
102.024
101.856
101.963
101.983
101.974
101.934
101.943
101.933
102.096
101.907
102.092
101.765
102.077
101.915
101.878
102.135
101.635
102.03
101.979
101.971
101.938
101.942
101.929
102.096
101.912
102.106
101.728
102.114
101.931
101.906
102.259
101.384
102.425
101.618
101.969
101.951
101.952
101.931
102.072
101.907
102.106
101.715
102.138
101.952
101.954
102.378
101.14
102.886
100.921
102.238
101.951
101.955
101.939
102.042
101.904
102.092
101.728
102.138
101.962
101.993
102.465
100.943
103.341
100.247
103.282
101.201
101.95
101.94
102.006
101.907
102.068
101.765
102.114
101.952
101.993
102.496
100.832
103.692
99.7082
104.368
99.882
102.385
101.946
101.974
101.911
102.034
101.811
102.077
101.931
101.954
102.465
100.832
103.828
99.4161
105.299
98.7557
103.693
100.778
101.955
101.923
101.997
101.854
102.033
101.915
101.906
102.378
100.943
103.692
99.4161
105.696
98.0832
104.656
99.451
102.281
101.936
101.967
101.891
101.994
101.91
101.878
102.259
101.14
103.341
99.7082
105.299
98.0832
105.047
98.3217
102.432
102.344
101.945
101.917
101.964
101.916
101.88
102.135
101.384
102.886
100.247
104.368
98.7557
104.656
98.3217
102.096
102.528
101.869
101.932
101.945
101.924
101.903
102.024
101.635
102.425
100.921
103.282
99.8819
103.693
99.451
102.432
102.528
99.6644
103.544
101.937
101.931
101.928
101.942
101.856
102.03
101.618
102.238
101.201
102.385
100.778
102.281
102.344
101.869
103.544
100.849
SCALARS U float 1
LOOKUP_TABLE default
-2.58448e-005
-0.000120643
-7.76756e-005
7.43548e-005
0.000165488
0.000135692
9.23972e-005
0.000169619
0.000275376
0.000382333
0.000386909
0.000412112
0.000380301
0.000302129
0.000229294
4.1574e-005
-9.51618e-006
-1.05507e-005
2.29574e-005
4.18736e-005
2.98554e-005
2.19626e-005
0.000126226
0.000192337
0.000335832
0.000289903
0.000409534
0.000379597
0.000371771
0.000392815
0.000108328
0.000201921
1.60104e-005
0.000102662
7.94736e-005
-4.72796e-005
-0.000137542
-4.03969e-006
0.000103825
0.000302929
0.000159024
0.000341896
0.000287733
0.00039783
0.000522165
0.000119929
0.000541885
-0.000233079
2.24551e-005
8.23228e-005
-9.22719e-008
-0.000158758
-0.000119018
-4.14355e-005
0.000212848
5.07169e-006
0.000213629
0.000105039
0.000350862
0.000589247
4.97197e-005
0.000944901
-0.000432369
0.000741999
-9.55847e-006
-5.65124e-005
-0.000153699
-0.000130574
-0.000109702
0.000108689
-0.000168682
2.6853e-005
-0.000150813
0.000214139
0.000558129
-0.000126718
0.00130383
-0.000829689
0.00159061
-0.0010022
-4.44192e-005
-0.000175175
-0.000174659
-0.000146265
4.62909e-005
-0.000274431
-0.000151295
-0.00042299
2.56462e-006
0.000416612
-0.00042071
0.0014814
-0.00144106
0.00258339
-0.00179543
0.00174567
-5.21252e-005
-0.00014678
-0.000174827
-3.21312e-005
-0.000310747
-0.000246377
-0.000607987
-0.000220499
0.000202479
-0.000780255
0.00140389
-0.00226139
0.0034228
-0.00293539
0.00332973
-0.00181693
-3.85698e-005
-9.51063e-005
-6.26225e-005
-0.000292029
-0.000263511
-0.000647582
-0.000371185
-6.22633e-006
-0.0010897
0.00113673
-0.00315153
0.00384447
-0.00430017
0.00497966
-0.00323423
0.00181047
-1.25572e-005
-3.29938e-005
-0.000189243
-0.000203825
-0.000547285
-0.000401642
-0.000129027
-0.00122267
0.000849556
-0.00380291
0.00378299
-0.0056575
0.00610802
-0.00524668
0.00302864
-0.000235944
-2.91405e-005
-7.41158e-005
-0.000103554
-0.000348083
-0.000312088
-0.000129217
-0.00111666
0.000698036
-0.00389484
0.00341706
-0.00655725
0.00643731
-0.00734968
0.00378995
-0.0010463
-0.00329101
6.17892e-006
-3.6664e-005
-0.000140593
-0.000154801
-2.89852e-005
-0.000815156
0.000707157
-0.003335
0.00301314
-0.00654666
0.00612868
-0.00870232
0.0036519
-0.00232513
-0.00527807
0.00880116
-2.18046e-005
-2.15854e-006
-1.62993e-005
9.93078e-005
-0.00043398
0.000776161
-0.00234551
0.00270129
-0.00551779
0.00555042
-0.00845102
0.00315488
-0.00359277
-0.00715961
0.0121114
-0.0190431
4.58074e-005
4.61004e-005
0.000173313
-0.000103295
0.000780641
-0.00128959
0.00240047
-0.00383564
0.00491322
-0.00659639
0.00327852
-0.00364007
-0.00786828
0.0130941
-0.0264552
0.0267427
2.04803e-005
0.000160842
9.332e-005
0.000656683
-0.000441137
0.00195449
-0.00207292
0.00412289
-0.00406482
0.00388093
-0.00233344
-0.00505501
0.0113169
-0.026909
0.0314693
-0.0362517
7.33531e-005
0.000141531
0.000440681
9.30471e-005
0.00132261
-0.000606463
0.00294811
-0.00167698
0.00385179
-0.00104413
-0.000189854
0.00750966
-0.0163042
0.024822
-0.0327951
0.031744
6.31172e-005
0.000228497
0.00030036
0.000679786
0.000387182
0.00145771
0.000346724
0.00240394
0.000486764
0.00207697
0.00292581
-0.00167554
0.008688
-0.010301
0.0167598
-0.010253
SCALARS V float 1
LOOKUP_TABLE default
-2.58481e-005
-9.52112e-006
1.60004e-005
2.24457e-005
-9.55459e-006
-4.44198e-005
-5.21264e-005
-3.85611e-005
-1.25515e-005
-2.9152e-005
6.17127e-006
-2.18184e-005
4.58064e-005
2.04817e-005
7.33443e-005
6.31131e-005
-0.000120672
-1.05779e-005
0.000102638
8.22972e-005
-5.65207e-005
-0.000175209
-0.000146782
-9.50949e-005
-3.29915e-005
-7.4112e-005
-3.66894e-005
-2.16684e-006
4.60846e-005
0.000160855
0.000141532
0.000228486
-7.76961e-005
2.29414e-005
7.94461e-005
-1.15643e-007
-0.000153744
-0.000174679
-0.000174868
-6.26393e-005
-0.000189241
-0.000103565
-0.000140595
-1.63179e-005
0.000173338
9.33087e-005
0.000440685
0.000300368
7.43364e-005
4.1849e-005
-4.72947e-005
-0.000158781
-0.000130578
-0.000146292
-3.21516e-005
-0.000292044
-0.000203865
-0.000348064
-0.000154812
9.93267e-005
-0.000103285
0.000656676
9.30572e-005
0.000679793
0.000165485
2.98323e-005
-0.000137551
-0.000119032
-0.000109722
4.62961e-005
-0.000310758
-0.000263532
-0.000547272
-0.000312127
-2.89527e-005
-0.000433976
0.000780633
-0.000441128
0.00132259
0.000387195
0.00013567
2.19701e-005
-4.05581e-006
-4.14392e-005
0.000108675
-0.00027445
-0.000246377
-0.000647593
-0.000401659
-0.000129203
-0.000815191
0.000776142
-0.0012896
0.00195446
-0.000606464
0.0014577
9.24051e-005
0.000126204
0.00010383
0.000212837
-0.000168678
-0.000151304
-0.000607995
-0.000371193
-0.000129032
-0.00111669
0.000707155
-0.00234551
0.00240045
-0.00207293
0.00294811
0.000346692
0.000169645
0.000192343
0.000302908
5.05394e-006
2.68326e-005
-0.000422998
-0.000220512
-6.23343e-006
-0.00122269
0.000698036
-0.003335
0.00270127
-0.00383566
0.00412291
-0.001677
0.00240395
0.000275374
0.000335835
0.000159008
0.000213634
-0.000150824
2.55026e-006
0.000202464
-0.00108972
0.000849536
-0.00389487
0.00301312
-0.00551781
0.00491324
-0.00406484
0.00385177
0.000486731
0.000382324
0.000289895
0.000341905
0.000104996
0.000214129
0.00041658
-0.000780265
0.0011367
-0.00380293
0.00341703
-0.00654668
0.00555042
-0.00659644
0.0038809
-0.00104416
0.00207695
0.000386876
0.00040954
0.000287712
0.000350874
0.000558079
-0.000420716
0.00140386
-0.00315155
0.00378296
-0.00655727
0.00612866
-0.00845108
0.0032785
-0.00233347
-0.000189873
0.0029258
0.000412097
0.000379566
0.000397827
0.000589212
-0.00012673
0.00148137
-0.00226142
0.00384445
-0.0056575
0.00643728
-0.00870233
0.00315488
-0.00364009
-0.00505499
0.00750965
-0.00167555
0.000380302
0.000371776
0.000522142
4.96986e-005
0.00130381
-0.00144108
0.00342279
-0.00430016
0.00610797
-0.00734967
0.00365188
-0.0035928
-0.0078683
0.0113168
-0.0163042
0.00868797
0.000302115
0.000392773
0.000119905
0.000944904
-0.000829703
0.00258339
-0.00293539
0.00497963
-0.00524667
0.00378993
-0.00232512
-0.00715963
0.0130941
-0.026909
0.0248219
-0.010301
0.00022929
0.000108337
0.000541888
-0.000432386
0.00159062
-0.00179545
0.0033297
-0.00323423
0.00302862
-0.00104629
-0.00527809
0.0121114
-0.0264553
0.0314693
-0.0327951
0.0167598
4.15713e-005
0.000201934
-0.000233079
0.000742005
-0.00100222
0.00174566
-0.00181691
0.00181046
-0.000235942
-0.00329103
0.00880115
-0.0190432
0.0267427
-0.0362517
0.031744
-0.010253
SCALARS B float 1
LOOKUP_TABLE default
1
1
1
1
1
1
1
1
1
1
1
1
1
1
1
1
1
1
1
1
1
1
1
1
1
1
1
1
1
1
1
1
1
1
1
1
1
1
1
1
1
1
1
1
1
1
1
1
1
1
1
1
1
1
1
1
1
1
1
1
1
1
1
1
1
1
1
1
1
1
1
1
1
1
1
1
1
1
1
1
1
1
1
1
1
1
1
1
1
1
1
1
1
1
1
1
1
1
1
1
1
1
1
1
1
1
1
1
1
1
1
1
1
1
1
1
1
1
1
1
1
1
1
1
1
1
1
1
1
1
1
1
1
1
1
1
1
1
1
1
1
1
1
1
1
1
1
1
1
1
1
1
1
1
1
1
1
1
1
1
1
1
1
1
1
1
1
1
1
1
1
1
1
1
1
1
1
1
1
1
1
1
1
1
1
1
1
1
1
1
1
1
1
1
1
1
1
1
1
1
1
1
1
1
1
1
1
1
1
1
1
1
1
1
1
1
1
1
1
1
1
1
1
1
1
1
1
1
1
1
1
1
1
1
1
1
1
1
1
1
1
1
1
1
1
1
1
1
1
1
1
1
1
1
1
1
