# vtk DataFile Version 2.0
HPC Tutorials: Michael Bader, Kaveh Rahnema, Oliver Meister
ASCII
DATASET RECTILINEAR_GRID
DIMENSIONS 17 17 1
X_COORDINATES 17 float
0
0.005
0.01
0.015
0.02
0.025
0.03
0.035
0.04
0.045
0.05
0.055
0.06
0.065
0.07
0.075
0.08
Y_COORDINATES 17 float
0
0.005
0.01
0.015
0.02
0.025
0.03
0.035
0.04
0.045
0.05
0.055
0.06
0.065
0.07
0.075
0.08
Z_COORDINATES 1 float
0
CELL_DATA 256
SCALARS H float 1
LOOKUP_TABLE default
101.974
101.948
101.952
101.978
101.984
101.959
101.944
101.948
101.967
101.958
101.953
101.942
101.94
101.943
101.931
101.938
101.948
101.963
101.981
101.98
101.956
101.948
101.948
101.978
101.958
101.965
101.941
101.94
101.956
101.914
101.959
101.922
101.952
101.981
101.983
101.947
101.937
101.948
102.003
101.968
101.972
101.931
101.939
101.978
101.889
102.006
101.866
101.957
101.978
101.98
101.947
101.93
101.937
102.015
101.984
101.987
101.917
101.931
102.004
101.867
102.075
101.779
102.054
101.872
101.984
101.956
101.937
101.937
102.014
101.985
101.994
101.906
101.926
102.036
101.855
102.162
101.669
102.193
101.711
101.989
101.959
101.948
101.948
102.015
101.985
101.992
101.891
101.92
102.07
101.86
102.254
101.548
102.363
101.508
102.179
101.807
101.944
101.948
102.003
101.984
101.994
101.891
101.914
102.088
101.872
102.334
101.435
102.536
101.289
102.44
101.614
101.951
101.948
101.978
101.968
101.987
101.906
101.92
102.088
101.877
102.379
101.352
102.679
101.096
102.774
101.4
101.976
101.873
101.967
101.958
101.972
101.917
101.926
102.07
101.872
102.379
101.32
102.759
100.965
103.116
101.198
102.044
102.081
101.543
101.958
101.965
101.931
101.931
102.036
101.86
102.334
101.352
102.759
100.918
103.342
101.051
102.177
102.26
100.614
102.435
101.953
101.941
101.939
102.004
101.855
102.254
101.435
102.679
100.965
103.342
100.995
102.277
102.341
99.9095
104.272
100.59
101.942
101.94
101.978
101.867
102.162
101.548
102.536
101.096
103.116
101.051
102.277
102.351
99.5367
105.839
97.8616
103.303
101.94
101.956
101.889
102.075
101.669
102.363
101.289
102.774
101.198
102.177
102.341
99.5367
106.512
96.5256
107.189
98.6462
101.943
101.914
102.006
101.779
102.193
101.508
102.44
101.4
102.044
102.26
99.9095
105.839
96.5256
109.223
95.5908
103.449
101.931
101.959
101.866
102.054
101.711
102.179
101.614
101.976
102.081
100.614
104.272
97.8616
107.189
95.5908
107.147
99.672
101.938
101.922
101.957
101.872
101.989
101.807
101.951
101.873
101.543
102.435
100.59
103.303
98.6462
103.449
99.672
103.612
SCALARS U float 1
LOOKUP_TABLE default
2.94648e-005
0.000134146
9.75403e-005
-3.3562e-005
-6.22811e-005
5.94577e-005
0.000213581
0.000267374
0.000275626
0.000327761
0.000363695
0.000433447
0.00034712
0.000351913
0.000180041
9.1084e-005
4.76376e-006
-2.64779e-006
-3.36073e-005
-1.67061e-005
4.46724e-005
0.000132623
0.000141919
0.000162807
0.000247534
0.000289695
0.000474677
0.00030171
0.000524446
0.000184614
0.000322992
2.60417e-005
-3.37454e-005
-0.000150133
-0.000122613
1.87642e-005
0.00014994
8.50448e-005
1.70779e-005
7.89293e-005
0.000155286
0.00047296
0.000193601
0.000670932
8.60062e-005
0.000625057
4.53704e-005
0.000132939
-4.69589e-005
-0.000152189
-9.73801e-005
5.71838e-005
3.4439e-005
-6.71672e-005
-7.85043e-005
-2.21257e-005
0.000405321
1.98328e-005
0.00073243
-0.000143873
0.000929184
-3.44529e-005
0.000436175
0.000172708
-2.78728e-005
-4.25855e-005
-2.93494e-006
-6.48569e-005
-0.000173659
-0.000210473
-0.000180051
0.000299365
-0.000193611
0.000676522
-0.000516842
0.00113508
-0.000238238
0.00078351
0.00037099
-0.000400415
3.4902e-006
3.6722e-005
-4.76993e-005
-0.000215762
-0.000313974
-0.000321472
0.000168768
-0.000396673
0.000521869
-0.000986304
0.00116513
-0.000592519
0.00105663
0.000483263
-0.000557947
0.00155841
-9.70733e-006
-2.33566e-005
-0.000157119
-0.0002938
-0.000383063
3.30678e-005
-0.000550109
0.000331397
-0.00142998
0.00100525
-0.00107339
0.00115045
0.000374488
-0.000934084
0.00279558
-0.00300114
-2.22432e-005
-0.000122585
-0.00021698
-0.00033362
-4.32985e-005
-0.000604157
0.000179823
-0.00168531
0.000739565
-0.00156713
0.00102596
-2.13994e-005
-0.00162604
0.00392502
-0.00498525
0.00591009
-5.17421e-005
-0.000136478
-0.000242738
-6.08279e-005
-0.000534451
0.000117236
-0.00164456
0.000508062
-0.00188508
0.000761441
-0.000563295
-0.00253304
0.00446588
-0.00749013
0.00993031
-0.00914206
-2.7477e-005
-0.000123172
-4.45506e-005
-0.00038049
0.000129902
-0.00132389
0.000407383
-0.00187077
0.000520121
-0.00094062
-0.00326992
0.00429682
-0.00997285
0.0134925
-0.0150092
0.0134747
-1.73636e-005
-6.00459e-006
-0.000193483
0.000160987
-0.000856293
0.000429505
-0.0015054
0.000431702
-0.00090432
-0.0033634
0.00381069
-0.0114893
0.0153341
-0.0213465
0.0202846
-0.0167379
-2.08196e-007
-3.31323e-005
0.000166905
-0.000403977
0.000479502
-0.000933258
0.000503106
-0.000481742
-0.00267016
0.00348404
-0.0112032
0.0152942
-0.0247616
0.0245535
-0.0267467
0.01801
3.85454e-005
0.000123828
-7.37966e-005
0.000469924
-0.000374214
0.000628075
5.04954e-005
-0.00150792
0.00332224
-0.00897438
0.0136758
-0.023352
0.0253814
-0.0334299
0.0231675
-0.0153233
2.23941e-005
8.53585e-005
0.000375004
1.69889e-005
0.000683486
0.000400556
-0.000342291
0.00291092
-0.00550378
0.0108351
-0.0174879
0.0223056
-0.0310211
0.0246756
-0.0225264
0.00975533
7.9317e-005
0.000217355
0.000198089
0.000602537
0.000493439
0.000475327
0.00202058
-0.00193645
0.00692828
-0.00883821
0.0153818
-0.0200528
0.0209123
-0.0210557
0.0105836
-0.00571769
5.91363e-005
0.000196285
0.000397686
0.000471842
0.000717047
0.00109385
0.000543276
0.00273999
-0.000794827
0.0061141
-0.00450829
0.00903852
-0.00707577
0.00712848
-0.00740178
-0.0020813
SCALARS V float 1
LOOKUP_TABLE default
2.94645e-005
4.7653e-006
-3.37513e-005
-4.69523e-005
-2.78742e-005
3.49642e-006
-9.70899e-006
-2.22448e-005
-5.17412e-005
-2.74723e-005
-1.73577e-005
-2.24456e-007
3.85385e-005
2.23859e-005
7.93157e-005
5.91437e-005
0.000134145
-2.65472e-006
-0.00015012
-0.000152167
-4.25746e-005
3.6752e-005
-2.3354e-005
-0.000122587
-0.000136479
-0.000123173
-5.99702e-006
-3.31543e-005
0.000123792
8.53399e-005
0.000217362
0.000196274
9.75651e-005
-3.36038e-005
-0.000122611
-9.73827e-005
-2.91363e-006
-4.77009e-005
-0.000157115
-0.000216983
-0.000242732
-4.45279e-005
-0.000193515
0.000166885
-7.38253e-005
0.000374986
0.000198087
0.000397678
-3.35412e-005
-1.66851e-005
1.87888e-005
5.72111e-005
-6.48465e-005
-0.000215749
-0.000293806
-0.000333628
-6.08164e-005
-0.000380518
0.000160993
-0.000403979
0.000469904
1.69883e-005
0.000602514
0.000471837
-6.22683e-005
4.46926e-005
0.000149948
3.44484e-005
-0.000173644
-0.00031398
-0.000383073
-4.33008e-005
-0.000534491
0.000129891
-0.000856314
0.000479481
-0.000374177
0.000683483
0.00049344
0.000717048
5.94251e-005
0.000132578
8.50143e-005
-6.71987e-005
-0.000210478
-0.000321482
3.30696e-005
-0.000604171
0.000117235
-0.0013239
0.00042946
-0.000933271
0.000628033
0.000400554
0.000475324
0.00109386
0.00021351
0.000141884
1.70389e-005
-7.85254e-005
-0.000180061
0.000168752
-0.000550136
0.000179813
-0.00164456
0.000407358
-0.00150539
0.000503071
5.04785e-005
-0.000342313
0.00202058
0.000543258
0.000267361
0.00016279
7.89103e-005
-2.21335e-005
0.000299346
-0.000396678
0.000331383
-0.00168532
0.000508039
-0.00187078
0.00043169
-0.000481746
-0.00150794
0.00291089
-0.00193648
0.00273998
0.000275627
0.000247516
0.000155267
0.000405278
-0.00019362
0.000521847
-0.00143001
0.000739545
-0.0018851
0.000520102
-0.000904355
-0.00267019
0.00332224
-0.00550384
0.00692831
-0.000794856
0.000327721
0.000289674
0.000472916
1.98216e-005
0.000676475
-0.000986326
0.00100524
-0.00156714
0.000761421
-0.000940638
-0.00336343
0.00348402
-0.00897445
0.0108352
-0.0088383
0.00611412
0.000363653
0.000474623
0.000193594
0.000732397
-0.000516864
0.00116515
-0.00107341
0.00102594
-0.000563309
-0.00326992
0.00381069
-0.0112032
0.0136758
-0.017488
0.0153818
-0.00450833
0.000433405
0.000301699
0.000670923
-0.000143863
0.00113508
-0.000592558
0.00115045
-2.14108e-005
-0.00253306
0.00429679
-0.0114893
0.0152942
-0.023352
0.0223057
-0.0200529
0.00903853
0.000347115
0.000524454
8.6011e-005
0.000929203
-0.000238258
0.00105663
0.000374461
-0.00162602
0.00446588
-0.00997283
0.0153341
-0.0247616
0.0253814
-0.0310211
0.0209123
-0.00707579
0.000351937
0.00018462
0.000625058
-3.44641e-005
0.000783533
0.000483235
-0.000934087
0.003925
-0.00749008
0.0134924
-0.0213464
0.0245534
-0.0334299
0.0246756
-0.0210557
0.00712846
0.000180068
0.000323
4.53631e-005
0.000436178
0.000370983
-0.000557945
0.00279557
-0.00498524
0.00993023
-0.0150091
0.0202845
-0.0267467
0.0231674
-0.0225264
0.0105836
-0.00740178
9.10837e-005
2.60412e-005
0.000132954
0.000172709
-0.000400409
0.0015584
-0.00300112
0.00591004
-0.009142
0.0134747
-0.0167378
0.01801
-0.0153233
0.00975535
-0.0057177
-0.0020813
SCALARS B float 1
LOOKUP_TABLE default
1
1
1
1
1
1
1
1
1
1
1
1
1
1
1
1
1
1
1
1
1
1
1
1
1
1
1
1
1
1
1
1
1
1
1
1
1
1
1
1
1
1
1
1
1
1
1
1
1
1
1
1
1
1
1
1
1
1
1
1
1
1
1
1
1
1
1
1
1
1
1
1
1
1
1
1
1
1
1
1
1
1
1
1
1
1
1
1
1
1
1
1
1
1
1
1
1
1
1
1
1
1
1
1
1
1
1
1
1
1
1
1
1
1
1
1
1
1
1
1
1
1
1
1
1
1
1
1
1
1
1
1
1
1
1
1
1
1
1
1
1
1
1
1
1
1
1
1
1
1
1
1
1
1
1
1
1
1
1
1
1
1
1
1
1
1
1
1
1
1
1
1
1
1
1
1
1
1
1
1
1
1
1
1
1
1
1
1
1
1
1
1
1
1
1
1
1
1
1
1
1
1
1
1
1
1
1
1
1
1
1
1
1
1
1
1
1
1
1
1
1
1
1
1
1
1
1
1
1
1
1
1
1
1
1
1
1
1
1
1
1
1
1
1
1
1
1
1
1
1
1
1
1
1
1
1
