# vtk DataFile Version 2.0
HPC Tutorials: Michael Bader, Kaveh Rahnema, Oliver Meister
ASCII
DATASET RECTILINEAR_GRID
DIMENSIONS 17 17 1
X_COORDINATES 17 float
0
0.005
0.01
0.015
0.02
0.025
0.03
0.035
0.04
0.045
0.05
0.055
0.06
0.065
0.07
0.075
0.08
Y_COORDINATES 17 float
0
0.005
0.01
0.015
0.02
0.025
0.03
0.035
0.04
0.045
0.05
0.055
0.06
0.065
0.07
0.075
0.08
Z_COORDINATES 1 float
0
CELL_DATA 256
SCALARS H float 1
LOOKUP_TABLE default
101.929
101.975
102.002
101.977
101.943
101.942
101.965
101.974
101.959
101.954
101.943
101.954
101.936
101.942
101.934
101.936
101.975
101.971
101.954
101.946
101.957
101.978
101.98
101.955
101.958
101.933
101.973
101.925
101.962
101.926
101.937
101.935
102.002
101.954
101.923
101.944
101.991
102.001
101.955
101.954
101.918
102
101.916
101.989
101.912
101.94
101.947
101.918
101.977
101.946
101.944
101.984
102.005
101.957
101.95
101.902
102.03
101.916
102.027
101.89
101.946
101.967
101.861
101.958
101.943
101.957
101.991
102.005
101.955
101.946
101.89
102.056
101.923
102.069
101.863
101.954
101.994
101.79
102.09
101.831
101.942
101.978
102.001
101.957
101.946
101.886
102.074
101.933
102.104
101.832
101.96
102.03
101.732
102.27
101.555
102.058
101.965
101.98
101.955
101.95
101.89
102.074
101.939
102.126
101.806
101.96
102.07
101.705
102.484
101.238
102.501
101.602
101.974
101.955
101.954
101.902
102.056
101.933
102.126
101.796
101.959
102.103
101.71
102.703
100.927
103.01
100.893
102.211
101.959
101.958
101.918
102.03
101.923
102.104
101.806
101.959
102.116
101.725
102.874
100.674
103.511
100.175
103.13
101.306
101.954
101.933
102
101.916
102.069
101.832
101.96
102.103
101.725
102.94
100.532
103.889
99.5616
104.091
100.29
102.235
101.943
101.973
101.916
102.027
101.863
101.96
102.07
101.71
102.874
100.532
104.031
99.2111
104.943
99.3772
102.875
101.314
101.954
101.925
101.989
101.89
101.954
102.03
101.705
102.703
100.674
103.889
99.2111
105.314
98.8462
103.398
100.896
101.627
101.936
101.962
101.912
101.946
101.994
101.732
102.484
100.927
103.511
99.5616
104.943
98.8462
103.703
100.43
100.388
103.261
101.942
101.926
101.94
101.967
101.79
102.27
101.238
103.01
100.175
104.091
99.3772
103.397
100.43
99.749
104.836
101.166
101.934
101.937
101.947
101.861
102.09
101.555
102.501
100.893
103.13
100.29
102.875
100.896
100.388
104.836
98.3801
103.948
101.936
101.935
101.918
101.958
101.831
102.058
101.602
102.211
101.306
102.235
101.314
101.627
103.261
101.166
103.948
100.066
SCALARS U float 1
LOOKUP_TABLE default
-7.9856e-007
-7.09751e-005
-8.58528e-005
2.69781e-005
0.00015166
0.000168694
0.000112893
0.000152058
0.000251791
0.000376401
0.000400261
0.000403443
0.000387507
0.000287684
0.000238699
3.71291e-005
-1.57931e-005
-4.12788e-005
-3.12326e-006
4.95145e-005
6.50474e-005
3.25128e-005
0.00010318
0.000164069
0.000327149
0.0003174
0.000387381
0.000412844
0.000322148
0.000435915
7.53086e-005
0.000214902
-1.00702e-005
4.53313e-005
7.9274e-005
1.10827e-005
-0.000116815
-4.73665e-005
4.95214e-005
0.00029885
0.000219749
0.000311638
0.00034142
0.000293439
0.000619595
3.31083e-005
0.000594495
-0.000241433
8.16122e-006
7.85702e-005
4.70441e-005
-0.000130045
-0.00016175
-0.000120563
0.000197536
9.86706e-005
0.000193429
0.000179478
0.000172631
0.000745522
-0.000104304
0.00106788
-0.000473242
0.000695873
1.20087e-006
-8.66769e-006
-0.000123326
-0.000166332
-0.000189863
8.75687e-005
-5.86431e-005
1.52409e-005
-6.15567e-005
-4.21128e-005
0.000769903
-0.00034466
0.00152251
-0.00092099
0.00152022
-0.000802828
-2.91902e-005
-0.000148218
-0.000199651
-0.000215449
2.76396e-005
-0.000154695
-0.000152016
-0.000331284
-0.000328048
0.000667607
-0.000679766
0.00181698
-0.00159633
0.00247661
-0.00145794
0.00121611
-4.65097e-005
-0.000167673
-0.000228969
-5.54548e-005
-0.000205761
-0.000235455
-0.000508742
-0.000592378
0.000463752
-0.0010575
0.00186204
-0.00248526
0.00325959
-0.00244348
0.0024099
-0.000728591
-4.84474e-005
-0.000126136
-8.527e-005
-0.000223514
-0.000260108
-0.000546085
-0.000727335
0.000245686
-0.00137145
0.00168864
-0.00342937
0.00361214
-0.00368704
0.00364154
-0.001342
-0.000157889
-1.64059e-005
-4.3284e-005
-0.000148989
-0.000209677
-0.000457834
-0.000698969
9.80079e-005
-0.00150253
0.00143067
-0.004098
0.00349352
-0.00500061
0.00442475
-0.00243014
-0.000210822
0.00283241
-3.21329e-005
-5.61561e-005
-0.000109967
-0.000275412
-0.000523901
6.13068e-005
-0.00138786
0.00122562
-0.004163
0.00311556
-0.00592223
0.00455872
-0.00377108
-0.000748403
0.0038603
-0.00767418
7.14521e-006
-4.33384e-005
-9.6401e-005
-0.000280957
0.000121237
-0.00105422
0.00111781
-0.00354903
0.00275714
-0.00595496
0.00423244
-0.00473343
-0.00176191
0.00411932
-0.0119595
0.0143532
-1.91572e-005
1.20074e-005
-7.94308e-005
0.000201227
-0.000614258
0.00105319
-0.00250104
0.00252447
-0.00497666
0.00379596
-0.00465124
-0.0023156
0.00359156
-0.0160244
0.0209325
-0.0239852
4.06886e-005
2.82349e-005
0.000226284
-0.000215677
0.000943462
-0.00139651
0.0023027
-0.00338175
0.00346868
-0.00349586
-0.00151837
0.0031765
-0.0174071
0.0235092
-0.0335664
0.0324135
2.87074e-005
0.000176679
4.23968e-005
0.000738857
-0.00051419
0.00192206
-0.00177081
0.00314462
-0.0019386
0.000309361
0.00304897
-0.0130871
0.0207266
-0.0361041
0.0390118
-0.0372304
6.63921e-005
0.000131324
0.00047204
4.79481e-005
0.00133391
-0.000486843
0.0024855
-0.000613602
0.0019086
0.0022264
-0.00520488
0.0140154
-0.0232989
0.0310471
-0.0367475
0.0309813
6.59715e-005
0.000231941
0.000287309
0.000691278
0.000395435
0.00137495
0.000548179
0.00194876
0.00139957
0.000655133
0.00505102
-0.00357369
0.0121095
-0.0131284
0.0149854
-0.010894
SCALARS V float 1
LOOKUP_TABLE default
-7.96111e-007
-1.57961e-005
-1.00663e-005
8.16067e-006
1.1959e-006
-2.91832e-005
-4.65142e-005
-4.84513e-005
-1.64086e-005
-3.21333e-005
7.14303e-006
-1.91626e-005
4.06903e-005
2.87042e-005
6.63974e-005
6.59686e-005
-7.09729e-005
-4.12864e-005
4.53558e-005
7.85788e-005
-8.66564e-006
-0.000148214
-0.00016767
-0.000126151
-4.32732e-005
-5.61475e-005
-4.33349e-005
1.2016e-005
2.82413e-005
0.000176666
0.000131314
0.000231926
-8.58361e-005
-3.1294e-006
7.92588e-005
4.70485e-005
-0.000123334
-0.00019965
-0.000228968
-8.52732e-005
-0.000149016
-0.000109967
-9.63968e-005
-7.94286e-005
0.000226273
4.2396e-005
0.00047201
0.000287283
2.69618e-005
4.95119e-005
1.10729e-005
-0.000130058
-0.000166347
-0.000215465
-5.54438e-005
-0.000223529
-0.000209674
-0.000275447
-0.000280975
0.000201229
-0.000215693
0.000738819
4.79244e-005
0.000691244
0.000151657
6.50606e-005
-0.0001168
-0.000161741
-0.000189847
2.76585e-005
-0.00020578
-0.000260098
-0.000457841
-0.0005239
0.000121245
-0.00061429
0.000943455
-0.000514194
0.00133387
0.000395428
0.000168706
3.25255e-005
-4.73677e-005
-0.00012056
8.75733e-005
-0.000154704
-0.00023544
-0.000546089
-0.000698986
6.13295e-005
-0.00105426
0.00105319
-0.00139654
0.00192204
-0.000486846
0.00137492
0.000112884
0.000103163
4.95221e-005
0.000197503
-5.86469e-005
-0.000152025
-0.000508755
-0.00072734
9.8032e-005
-0.00138791
0.00111782
-0.00250109
0.00230267
-0.00177083
0.00248549
0.000548157
0.00015201
0.000164036
0.000298812
9.8674e-005
1.52109e-005
-0.000331285
-0.00059239
0.000245675
-0.00150256
0.00122562
-0.00354907
0.00252446
-0.00338177
0.00314462
-0.00061363
0.00194875
0.000251779
0.000327112
0.000219733
0.000193394
-6.15729e-005
-0.000328053
0.000463723
-0.00137147
0.00143066
-0.00416302
0.00275714
-0.00497669
0.00346869
-0.00193866
0.00190865
0.00139954
0.000376383
0.00031739
0.00031159
0.000179462
-4.21267e-005
0.000667555
-0.00105749
0.00168863
-0.004098
0.00311556
-0.00595498
0.00379597
-0.0034959
0.000309447
0.0022263
0.000655163
0.000400237
0.000387367
0.00034141
0.000172605
0.000769858
-0.000679747
0.00186202
-0.00342935
0.00349353
-0.00592223
0.00423244
-0.00465126
-0.00151832
0.00304887
-0.00520478
0.00505098
0.000403437
0.000412825
0.000293429
0.000745496
-0.000344648
0.00181695
-0.00248525
0.00361213
-0.00500061
0.00455873
-0.00473342
-0.00231557
0.00317645
-0.0130871
0.0140153
-0.00357366
0.000387492
0.000322148
0.000619589
-0.000104276
0.00152251
-0.00159631
0.0032596
-0.00368703
0.00442473
-0.00377107
-0.00176195
0.00359157
-0.0174071
0.0207266
-0.0232989
0.0121095
0.000287666
0.000435905
3.31058e-005
0.00106787
-0.000920974
0.00247661
-0.00244347
0.00364151
-0.00243009
-0.000748471
0.00411938
-0.0160245
0.0235092
-0.0361041
0.0310471
-0.0131284
0.000238683
7.52836e-005
0.000594493
-0.000473252
0.00152023
-0.00145794
0.00240988
-0.00134196
-0.000210924
0.00386038
-0.0119596
0.0209326
-0.0335664
0.0390118
-0.0367475
0.0149854
3.71362e-005
0.000214918
-0.000241426
0.000695896
-0.000802833
0.00121611
-0.000728552
-0.000157946
0.00283252
-0.00767427
0.0143533
-0.0239852
0.0324135
-0.0372304
0.0309813
-0.010894
SCALARS B float 1
LOOKUP_TABLE default
1
1
1
1
1
1
1
1
1
1
1
1
1
1
1
1
1
1
1
1
1
1
1
1
1
1
1
1
1
1
1
1
1
1
1
1
1
1
1
1
1
1
1
1
1
1
1
1
1
1
1
1
1
1
1
1
1
1
1
1
1
1
1
1
1
1
1
1
1
1
1
1
1
1
1
1
1
1
1
1
1
1
1
1
1
1
1
1
1
1
1
1
1
1
1
1
1
1
1
1
1
1
1
1
1
1
1
1
1
1
1
1
1
1
1
1
1
1
1
1
1
1
1
1
1
1
1
1
1
1
1
1
1
1
1
1
1
1
1
1
1
1
1
1
1
1
1
1
1
1
1
1
1
1
1
1
1
1
1
1
1
1
1
1
1
1
1
1
1
1
1
1
1
1
1
1
1
1
1
1
1
1
1
1
1
1
1
1
1
1
1
1
1
1
1
1
1
1
1
1
1
1
1
1
1
1
1
1
1
1
1
1
1
1
1
1
1
1
1
1
1
1
1
1
1
1
1
1
1
1
1
1
1
1
1
1
1
1
1
1
1
1
1
1
1
1
1
1
1
1
1
1
1
1
1
1
