# vtk DataFile Version 2.0
HPC Tutorials: Michael Bader, Kaveh Rahnema, Oliver Meister
ASCII
DATASET RECTILINEAR_GRID
DIMENSIONS 17 17 1
X_COORDINATES 17 float
0
0.005
0.01
0.015
0.02
0.025
0.03
0.035
0.04
0.045
0.05
0.055
0.06
0.065
0.07
0.075
0.08
Y_COORDINATES 17 float
0
0.005
0.01
0.015
0.02
0.025
0.03
0.035
0.04
0.045
0.05
0.055
0.06
0.065
0.07
0.075
0.08
Z_COORDINATES 1 float
0
CELL_DATA 256
SCALARS H float 1
LOOKUP_TABLE default
101.927
101.958
102.002
102.003
101.96
101.929
101.942
101.965
101.975
101.954
101.953
101.939
101.945
101.937
101.935
101.937
101.958
101.972
101.974
101.957
101.947
101.96
101.97
101.981
101.944
101.963
101.93
101.96
101.937
101.932
101.947
101.926
102.002
101.974
101.926
101.915
101.961
101.996
102.011
101.937
101.962
101.913
101.982
101.94
101.931
101.971
101.885
101.952
102.003
101.957
101.915
101.94
101.986
102.029
101.941
101.966
101.895
102.009
101.949
101.933
102.003
101.821
102.041
101.87
101.96
101.947
101.961
101.986
102.022
101.93
101.962
101.883
102.042
101.969
101.943
102.035
101.742
102.172
101.688
102.012
101.929
101.96
101.996
102.029
101.93
101.954
101.869
102.068
101.993
101.959
102.061
101.657
102.337
101.469
102.3
101.741
101.942
101.97
102.011
101.941
101.962
101.869
102.076
102.009
101.972
102.073
101.579
102.519
101.255
102.666
101.313
102.09
101.965
101.981
101.937
101.966
101.883
102.068
102.009
101.977
102.076
101.521
102.684
101.088
103.085
100.834
102.552
101.582
101.975
101.944
101.962
101.895
102.042
101.993
101.972
102.076
101.499
102.784
100.989
103.478
100.368
103.063
101.076
101.996
101.954
101.963
101.913
102.009
101.969
101.959
102.073
101.521
102.784
100.958
103.722
100.02
103.559
100.538
102.163
101.851
101.953
101.93
101.982
101.949
101.943
102.061
101.579
102.684
100.989
103.722
99.8899
103.87
100.1
102.401
102.212
101.324
101.939
101.96
101.94
101.933
102.035
101.657
102.519
101.088
103.478
100.02
103.87
99.9382
102.696
102.533
99.5542
102.838
101.945
101.937
101.931
102.003
101.742
102.337
101.255
103.085
100.368
103.559
100.1
102.696
102.732
98.7272
105.56
99.8057
101.937
101.932
101.971
101.821
102.172
101.469
102.666
100.834
103.063
100.538
102.401
102.533
98.7272
106.823
96.5369
104.566
101.935
101.947
101.885
102.041
101.688
102.3
101.313
102.552
101.076
102.163
102.212
99.5542
105.56
96.5369
107.345
99.7484
101.937
101.926
101.952
101.87
102.012
101.741
102.09
101.582
101.996
101.851
101.324
102.838
99.8058
104.566
99.7484
102.003
SCALARS U float 1
LOOKUP_TABLE default
3.98634e-005
7.8377e-005
-4.85125e-006
-4.79534e-005
4.23105e-005
0.000152213
0.000192699
0.000182923
0.00025311
0.000344747
0.000402095
0.000425012
0.000349902
0.000349865
0.000170189
0.00010633
-1.22114e-005
-5.23728e-005
-4.35024e-005
3.27037e-005
8.69599e-005
0.000111341
7.70957e-005
0.000171781
0.000253641
0.000354355
0.000427547
0.000326982
0.000505596
0.000172611
0.00037218
-4.51455e-005
-4.7094e-005
-0.000105235
-1.00853e-005
6.69985e-005
5.65406e-005
-6.30275e-005
3.64119e-005
0.000137577
0.000297628
0.000373591
0.000222893
0.000608198
8.69726e-005
0.000719338
-0.000113584
0.000331954
-3.25407e-005
-3.06949e-005
2.07748e-005
1.44803e-005
-0.000152321
-0.000106602
-2.35181e-005
0.00020406
0.000283949
4.49039e-005
0.000605006
-0.000114784
0.00108662
-0.000322018
0.000850195
-0.00026683
-1.48758e-006
2.11865e-005
-1.50314e-005
-0.000191162
-0.00019257
-0.000159958
7.44777e-005
0.000143145
-0.000191934
0.000480481
-0.000435254
0.00138147
-0.000672454
0.00148136
-0.000505923
0.000435149
4.51407e-006
-2.43868e-005
-0.00017999
-0.000225088
-0.000233306
-3.12806e-005
5.83776e-007
-0.000440795
0.000247214
-0.000843201
0.00152437
-0.00115844
0.00203948
-0.000985936
0.00101492
0.000185715
-2.8843e-005
-0.000131954
-0.000210048
-0.000255989
-0.000111187
-9.67471e-005
-0.000598454
1.82319e-006
-0.00124952
0.00147295
-0.00172586
0.00234654
-0.0017494
0.00157857
0.000325315
-0.00104253
-3.58335e-005
-0.000141714
-0.000209152
-0.000152794
-0.000152865
-0.00062771
-0.000144954
-0.00150234
0.00127107
-0.00224468
0.00233151
-0.00275591
0.00182986
0.000228204
-0.00152364
0.00350653
-5.18153e-005
-0.00010604
-0.000122775
-0.000140264
-0.00053649
-0.000163259
-0.00150083
0.00102647
-0.00253149
0.00208975
-0.00372099
0.0016378
-0.000269915
-0.00229291
0.0056782
-0.00711048
-1.20315e-005
-6.60581e-005
-7.41803e-005
-0.00035272
-7.18512e-005
-0.00124413
0.000831401
-0.00245224
0.00181219
-0.00418541
0.00118888
-0.00103881
-0.00333992
0.00727211
-0.0116156
0.0125802
-2.60148e-005
-1.5516e-005
-0.000164979
5.13631e-005
-0.000824212
0.000723542
-0.00200583
0.00162685
-0.00385132
0.000864867
-0.00155148
-0.00414684
0.00778331
-0.0165845
0.0189333
-0.019333
1.47334e-005
-3.23841e-005
0.000121266
-0.000398785
0.000660672
-0.00133479
0.00152008
-0.00284928
0.000906809
-0.00139152
-0.00412999
0.00756114
-0.0196154
0.0229731
-0.0293394
0.026372
1.90106e-005
0.000118823
-8.37627e-005
0.000569453
-0.000658977
0.00139028
-0.00163242
0.00121108
-0.000673668
-0.00306117
0.00690194
-0.0184217
0.0231412
-0.0369544
0.0362772
-0.0291715
4.16373e-005
7.29046e-005
0.000421369
-0.000147967
0.00115248
-0.000624938
0.00146042
5.42001e-005
-0.00121337
0.00571913
-0.0130422
0.019719
-0.0340542
0.0367437
-0.0392032
0.0303275
6.61794e-005
0.000236261
0.000135294
0.000801919
2.84078e-005
0.00138751
0.000428239
0.000540086
0.003779
-0.00560781
0.01301
-0.019923
0.0275641
-0.0340882
0.0285549
-0.0239934
6.49451e-005
0.000189381
0.000431251
0.00038586
0.000922106
0.000684177
0.00120848
0.00179932
0.000330181
0.00478115
-0.00355378
0.0110332
-0.00897191
0.0123484
-0.0154005
0.0072489
SCALARS V float 1
LOOKUP_TABLE default
3.98645e-005
-1.22123e-005
-4.70907e-005
-3.25259e-005
-1.48746e-006
4.52743e-006
-2.88289e-005
-3.58143e-005
-5.18121e-005
-1.20251e-005
-2.60093e-005
1.47319e-005
1.9014e-005
4.16403e-005
6.61878e-005
6.49417e-005
7.83794e-005
-5.2363e-005
-0.000105227
-3.06817e-005
2.12137e-005
-2.43667e-005
-0.00013192
-0.000141681
-0.000106021
-6.60405e-005
-1.55003e-005
-3.23886e-005
0.000118839
7.28941e-005
0.000236271
0.00018941
-4.82301e-006
-4.34821e-005
-1.00646e-005
2.08042e-005
-1.50171e-005
-0.000179954
-0.00021001
-0.000209138
-0.000122734
-7.4152e-005
-0.000164963
0.000121292
-8.37591e-005
0.0004214
0.000135301
0.000431286
-4.79068e-005
3.27333e-005
6.70332e-005
1.45086e-005
-0.000191131
-0.000225048
-0.000255962
-0.000152751
-0.000140237
-0.000352702
5.13872e-005
-0.000398775
0.000569495
-0.000147963
0.000801999
0.000385898
4.23439e-005
8.6994e-005
5.65764e-005
-0.000152283
-0.000192531
-0.000233278
-0.000111167
-0.000152837
-0.000536476
-7.18319e-005
-0.000824211
0.000660691
-0.00065899
0.00115257
2.84031e-005
0.000922163
0.00015226
0.000111386
-6.30015e-005
-0.000106586
-0.000159934
-3.12567e-005
-9.67177e-005
-0.000627684
-0.000163231
-0.00124413
0.000723558
-0.00133479
0.00139034
-0.000624963
0.00138758
0.000684165
0.000192724
7.71101e-005
3.64201e-005
-2.35015e-005
7.45032e-005
6.03169e-007
-0.000598435
-0.000144928
-0.00150081
0.000831411
-0.00200584
0.00152013
-0.00163246
0.00146048
0.000428199
0.00120852
0.000182935
0.000171788
0.000137607
0.000204081
0.000143158
-0.000440772
1.84767e-006
-0.00150232
0.00102648
-0.00245223
0.00162688
-0.00284931
0.00121112
5.41762e-005
0.00054013
0.00179933
0.000253093
0.000253652
0.00029762
0.000283944
-0.000191921
0.000247225
-0.0012495
0.0012711
-0.00253145
0.0018122
-0.00385131
0.000906851
-0.000673667
-0.00121337
0.00377902
0.000330204
0.000344731
0.000354339
0.00037358
4.49141e-005
0.000480479
-0.000843168
0.00147298
-0.00224467
0.00208978
-0.00418538
0.000864888
-0.00139151
-0.00306115
0.00571918
-0.00560785
0.00478118
0.000402091
0.000427539
0.000222905
0.000605
-0.000435238
0.00152436
-0.00172584
0.00233152
-0.00372098
0.00118889
-0.00155147
-0.00412998
0.00690195
-0.0130423
0.01301
-0.0035538
0.000424997
0.00032699
0.000608198
-0.000114761
0.00138147
-0.00115843
0.0023465
-0.00275588
0.0016378
-0.0010388
-0.00414684
0.00756115
-0.0184218
0.0197191
-0.0199231
0.0110333
0.000349922
0.00050559
8.69983e-005
0.00108661
-0.000672433
0.00203944
-0.00174936
0.00182983
-0.000269896
-0.00333993
0.0077833
-0.0196154
0.0231412
-0.0340543
0.0275642
-0.00897192
0.000349885
0.000172642
0.000719349
-0.000321971
0.00148132
-0.000985899
0.00157853
0.000228216
-0.00229292
0.0072721
-0.0165845
0.0229731
-0.0369544
0.0367437
-0.0340882
0.0123484
0.000170215
0.000372186
-0.000113566
0.000850153
-0.000505878
0.00101488
0.000325347
-0.00152363
0.00567816
-0.0116155
0.0189333
-0.0293393
0.0362771
-0.0392032
0.0285549
-0.0154005
0.000106343
-4.51322e-005
0.00033194
-0.000266793
0.000435095
0.000185761
-0.00104254
0.00350651
-0.00711043
0.0125801
-0.0193329
0.0263719
-0.0291715
0.0303276
-0.0239934
0.0072489
SCALARS B float 1
LOOKUP_TABLE default
1
1
1
1
1
1
1
1
1
1
1
1
1
1
1
1
1
1
1
1
1
1
1
1
1
1
1
1
1
1
1
1
1
1
1
1
1
1
1
1
1
1
1
1
1
1
1
1
1
1
1
1
1
1
1
1
1
1
1
1
1
1
1
1
1
1
1
1
1
1
1
1
1
1
1
1
1
1
1
1
1
1
1
1
1
1
1
1
1
1
1
1
1
1
1
1
1
1
1
1
1
1
1
1
1
1
1
1
1
1
1
1
1
1
1
1
1
1
1
1
1
1
1
1
1
1
1
1
1
1
1
1
1
1
1
1
1
1
1
1
1
1
1
1
1
1
1
1
1
1
1
1
1
1
1
1
1
1
1
1
1
1
1
1
1
1
1
1
1
1
1
1
1
1
1
1
1
1
1
1
1
1
1
1
1
1
1
1
1
1
1
1
1
1
1
1
1
1
1
1
1
1
1
1
1
1
1
1
1
1
1
1
1
1
1
1
1
1
1
1
1
1
1
1
1
1
1
1
1
1
1
1
1
1
1
1
1
1
1
1
1
1
1
1
1
1
1
1
1
1
1
1
1
1
1
1
