# vtk DataFile Version 2.0
HPC Tutorials: Michael Bader, Kaveh Rahnema, Oliver Meister
ASCII
DATASET RECTILINEAR_GRID
DIMENSIONS 17 17 1
X_COORDINATES 17 float
0
0.005
0.01
0.015
0.02
0.025
0.03
0.035
0.04
0.045
0.05
0.055
0.06
0.065
0.07
0.075
0.08
Y_COORDINATES 17 float
0
0.005
0.01
0.015
0.02
0.025
0.03
0.035
0.04
0.045
0.05
0.055
0.06
0.065
0.07
0.075
0.08
Z_COORDINATES 1 float
0
CELL_DATA 256
SCALARS H float 1
LOOKUP_TABLE default
102.004
102
101.971
101.951
101.971
102
102
101.97
101.952
101.954
101.952
101.956
101.936
101.945
101.929
101.935
102
101.982
101.968
101.979
101.993
101.996
101.97
101.958
101.963
101.955
101.975
101.924
101.968
101.91
101.95
101.925
101.971
101.968
101.997
102.019
102.008
101.956
101.939
101.965
101.968
102.008
101.91
101.999
101.876
101.981
101.902
101.933
101.951
101.979
102.019
102.029
101.97
101.931
101.955
101.972
102.044
101.9
102.033
101.832
102.032
101.867
101.941
101.922
101.971
101.993
102.008
101.97
101.94
101.963
101.981
102.073
101.888
102.059
101.783
102.102
101.832
101.963
101.947
101.879
102
101.996
101.956
101.931
101.963
101.992
102.099
101.882
102.073
101.733
102.181
101.806
102.01
101.98
101.731
101.986
102
101.97
101.939
101.955
101.981
102.099
101.883
102.081
101.696
102.255
101.798
102.081
102.007
101.568
102.297
101.655
101.97
101.958
101.965
101.972
102.073
101.882
102.081
101.683
102.302
101.803
102.159
102.022
101.422
102.668
101.033
102.221
101.952
101.963
101.968
102.044
101.888
102.073
101.696
102.302
101.807
102.211
102.026
101.31
103.04
100.46
103.266
101.153
101.954
101.955
102.008
101.9
102.059
101.733
102.255
101.803
102.211
102.026
101.249
103.333
100.038
104.36
99.6541
102.468
101.952
101.975
101.91
102.033
101.783
102.181
101.798
102.159
102.026
101.249
103.449
99.8246
105.267
98.4125
104.297
100.414
101.956
101.924
101.999
101.832
102.102
101.806
102.081
102.022
101.31
103.333
99.8246
105.636
97.6608
105.643
98.4688
102.747
101.936
101.968
101.876
102.032
101.832
102.01
102.007
101.422
103.04
100.038
105.267
97.6608
106.1
97.0448
104.251
101.117
101.945
101.91
101.981
101.867
101.963
101.98
101.568
102.668
100.46
104.36
98.4125
105.643
97.0448
104.355
100.203
102.228
101.929
101.95
101.902
101.941
101.947
101.731
102.297
101.033
103.266
99.6541
104.297
98.4688
104.251
100.203
101.222
102.806
101.935
101.925
101.933
101.922
101.879
101.986
101.655
102.221
101.153
102.468
100.414
102.747
101.117
102.228
102.806
102.031
SCALARS U float 1
LOOKUP_TABLE default
-4.25399e-005
-0.000125906
-3.18846e-005
0.00011556
0.00014988
9.81436e-005
0.000103681
0.000221101
0.000314427
0.000389718
0.00038108
0.00042932
0.000382714
0.000323221
0.000222607
5.04987e-005
5.36071e-007
2.72875e-005
4.78699e-005
3.09672e-005
6.36044e-006
3.9097e-005
0.000168344
0.000228158
0.000341189
0.000277049
0.000441817
0.00036354
0.000427414
0.000350974
0.000152897
0.000178809
3.6304e-005
0.000123737
4.87343e-005
-8.81946e-005
-0.000102635
7.30644e-005
0.000153959
0.00027939
0.000110838
0.000387334
0.00026592
0.000505481
0.000423663
0.000225959
0.000465009
-0.000193872
2.63138e-005
4.76913e-005
-6.10926e-005
-0.000148303
-3.32008e-005
4.3764e-005
0.000191195
-8.18705e-005
0.000251151
7.88022e-005
0.000525923
0.00042443
0.00022956
0.000777579
-0.000324347
0.000722152
-2.3473e-005
-0.000101651
-0.000157856
-7.13045e-005
-3.37515e-005
8.80411e-005
-0.000269088
6.47313e-005
-0.000174289
0.000456775
0.000322968
0.000118772
0.00101901
-0.000615566
0.00153098
-0.00108032
-5.2421e-005
-0.000164257
-0.000118323
-8.46256e-005
1.22644e-005
-0.000393368
-0.000118809
-0.000431387
0.0003115
0.000123585
-0.000137154
0.00106329
-0.00109213
0.00247659
-0.00190675
0.00208222
-4.86733e-005
-9.84975e-005
-0.000112758
-4.68932e-005
-0.000421682
-0.000233867
-0.000620611
0.000126846
-0.000116237
-0.00048509
0.000856381
-0.0017643
0.00328347
-0.00308188
0.00389516
-0.00265084
-2.66176e-005
-6.54581e-005
-6.29221e-005
-0.000361851
-0.000250238
-0.000672126
-3.71795e-005
-0.000321536
-0.000798436
0.000495001
-0.00252815
0.00369652
-0.00446627
0.00576826
-0.0046695
0.00350888
-1.29701e-005
-4.15905e-005
-0.000235871
-0.000189929
-0.000575859
-0.000116663
-0.000411529
-0.000940314
0.000178985
-0.00312255
0.00364503
-0.00580646
0.00706206
-0.00738228
0.00586457
-0.00303899
-2.86316e-005
-9.93431e-005
-9.92855e-005
-0.000384058
-0.000103246
-0.000356254
-0.000844374
7.97678e-005
-0.00325336
0.00329122
-0.00667172
0.00747063
-0.0100816
0.00776303
-0.00544734
0.00117709
2.6189e-006
-3.06013e-005
-0.000169071
-2.8848e-005
-0.000197646
-0.000570633
0.000207871
-0.00280906
0.00289012
-0.00663735
0.00715166
-0.0117591
0.00841647
-0.00816949
0.00144329
0.00289082
-2.15405e-005
-1.14796e-005
4.78334e-005
-1.05188e-005
-0.000244099
0.000421626
-0.0019643
0.00257474
-0.00560401
0.00650248
-0.0113947
0.00800833
-0.0100774
0.00143224
0.00284431
-0.0123346
4.84432e-005
6.63869e-005
0.000117523
1.91993e-005
0.000560244
-0.00104111
0.00227437
-0.0039163
0.00571194
-0.00899612
0.00748241
-0.00975033
0.00139078
0.00240456
-0.0175555
0.0184829
1.46866e-005
0.000143284
0.00015159
0.000541478
-0.000293948
0.00183966
-0.00211288
0.00465357
-0.00568403
0.00691275
-0.00715992
0.00270188
0.00174867
-0.0161742
0.0204251
-0.0314216
7.79264e-005
0.000154221
0.000396727
0.000165768
0.00123715
-0.000588652
0.00316802
-0.00244123
0.00542785
-0.00386915
0.00448473
0.000768543
-0.0082349
0.0157658
-0.0261079
0.0290692
6.03262e-005
0.000222153
0.0003159
0.000649961
0.000407589
0.00147807
0.000222401
0.00272848
-0.00021691
0.00342507
0.000814924
0.000274849
0.00444278
-0.00655052
0.0158832
-0.00977834
SCALARS V float 1
LOOKUP_TABLE default
-4.25366e-005
5.40904e-007
3.62984e-005
2.63083e-005
-2.34855e-005
-5.24283e-005
-4.86817e-005
-2.66311e-005
-1.29789e-005
-2.865e-005
2.61107e-006
-2.15482e-005
4.84386e-005
1.46806e-005
7.7928e-005
6.0325e-005
-0.000125914
2.7282e-005
0.00012371
4.76592e-005
-0.000101668
-0.000164275
-9.85324e-005
-6.54842e-005
-4.16019e-005
-9.93782e-005
-3.0624e-005
-1.15036e-005
6.63846e-005
0.000143275
0.000154225
0.000222169
-3.19323e-005
4.78488e-005
4.87185e-005
-6.11212e-005
-0.00015787
-0.000118352
-0.000112758
-6.29267e-005
-0.000235886
-9.92929e-005
-0.000169079
4.78312e-005
0.000117513
0.000151604
0.000396746
0.000315913
0.000115539
3.09417e-005
-8.82086e-005
-0.000148313
-7.13298e-005
-8.46253e-005
-4.69014e-005
-0.000361846
-0.000189928
-0.000384047
-2.88385e-005
-1.05223e-005
1.92154e-005
0.000541483
0.000165765
0.000649963
0.000149887
6.37563e-006
-0.000102646
-3.31996e-005
-3.37462e-005
1.22477e-005
-0.000421674
-0.00025024
-0.000575859
-0.00010323
-0.000197638
-0.000244073
0.000560248
-0.000293938
0.00123719
0.000407612
9.81549e-005
3.90956e-005
7.30811e-005
4.37455e-005
8.80478e-005
-0.000393363
-0.000233875
-0.000672121
-0.00011664
-0.000356251
-0.000570606
0.000421623
-0.00104109
0.00183971
-0.000588684
0.00147811
0.000103686
0.000168361
0.000153951
0.000191203
-0.000269114
-0.000118809
-0.000620623
-3.71867e-005
-0.000411551
-0.000844357
0.000207872
-0.00196431
0.00227442
-0.00211292
0.00316809
0.000222385
0.00022111
0.000228151
0.000279403
-8.18745e-005
6.47407e-005
-0.000431402
0.000126842
-0.000321549
-0.000940313
7.9734e-005
-0.00280908
0.0025748
-0.00391638
0.00465366
-0.00244131
0.00272852
0.000314436
0.000341199
0.000110844
0.000251159
-0.000174284
0.000311492
-0.00011623
-0.000798439
0.000178981
-0.00325337
0.00289014
-0.00560409
0.00571203
-0.00568413
0.00542794
-0.000216925
0.000389714
0.000277061
0.000387343
7.88114e-005
0.000456763
0.000123605
-0.000485118
0.000495005
-0.00312255
0.00329123
-0.00663741
0.00650255
-0.00899621
0.0069128
-0.00386916
0.00342506
0.00038109
0.000441818
0.00026592
0.00052592
0.000322984
-0.000137171
0.000856395
-0.00252817
0.00364499
-0.00667173
0.00715167
-0.0113948
0.00748243
-0.00715992
0.00448467
0.000814923
0.000429318
0.000363527
0.000505469
0.000424429
0.000118749
0.00106329
-0.00176429
0.00369647
-0.00580642
0.00747057
-0.0117591
0.00800832
-0.00975032
0.00270177
0.000768629
0.000274802
0.000382725
0.000427419
0.000423666
0.000229554
0.00101903
-0.00109212
0.00328341
-0.0044662
0.00706197
-0.0100815
0.00841645
-0.0100775
0.00139073
0.00174876
-0.00823504
0.00444285
0.000323234
0.000350975
0.000225949
0.00077757
-0.000615568
0.00247655
-0.00308182
0.00576816
-0.00738219
0.00776298
-0.00816953
0.00143228
0.00240454
-0.0161742
0.0157659
-0.00655058
0.000222628
0.000152913
0.000465009
-0.000324333
0.00153094
-0.00190669
0.00389509
-0.0046694
0.00586451
-0.00544735
0.00144337
0.0028442
-0.0175554
0.020425
-0.0261079
0.0158832
5.05101e-005
0.000178802
-0.000193856
0.000722146
-0.00108027
0.00208216
-0.00265078
0.00350881
-0.00303898
0.00117715
0.00289073
-0.0123345
0.0184828
-0.0314216
0.0290692
-0.00977835
SCALARS B float 1
LOOKUP_TABLE default
1
1
1
1
1
1
1
1
1
1
1
1
1
1
1
1
1
1
1
1
1
1
1
1
1
1
1
1
1
1
1
1
1
1
1
1
1
1
1
1
1
1
1
1
1
1
1
1
1
1
1
1
1
1
1
1
1
1
1
1
1
1
1
1
1
1
1
1
1
1
1
1
1
1
1
1
1
1
1
1
1
1
1
1
1
1
1
1
1
1
1
1
1
1
1
1
1
1
1
1
1
1
1
1
1
1
1
1
1
1
1
1
1
1
1
1
1
1
1
1
1
1
1
1
1
1
1
1
1
1
1
1
1
1
1
1
1
1
1
1
1
1
1
1
1
1
1
1
1
1
1
1
1
1
1
1
1
1
1
1
1
1
1
1
1
1
1
1
1
1
1
1
1
1
1
1
1
1
1
1
1
1
1
1
1
1
1
1
1
1
1
1
1
1
1
1
1
1
1
1
1
1
1
1
1
1
1
1
1
1
1
1
1
1
1
1
1
1
1
1
1
1
1
1
1
1
1
1
1
1
1
1
1
1
1
1
1
1
1
1
1
1
1
1
1
1
1
1
1
1
1
1
1
1
1
1
