# vtk DataFile Version 2.0
HPC Tutorials: Michael Bader, Kaveh Rahnema, Oliver Meister
ASCII
DATASET RECTILINEAR_GRID
DIMENSIONS 17 17 1
X_COORDINATES 17 float
0
0.005
0.01
0.015
0.02
0.025
0.03
0.035
0.04
0.045
0.05
0.055
0.06
0.065
0.07
0.075
0.08
Y_COORDINATES 17 float
0
0.005
0.01
0.015
0.02
0.025
0.03
0.035
0.04
0.045
0.05
0.055
0.06
0.065
0.07
0.075
0.08
Z_COORDINATES 1 float
0
CELL_DATA 256
SCALARS H float 1
LOOKUP_TABLE default
102.005
101.961
101.934
101.956
101.988
101.989
101.961
101.952
101.953
101.961
101.952
101.944
101.946
101.933
101.942
101.931
101.961
101.965
101.98
101.987
101.977
101.95
101.956
101.956
101.977
101.959
101.947
101.957
101.918
101.966
101.907
101.943
101.934
101.98
102.011
101.993
101.939
101.944
101.955
101.999
101.97
101.947
101.968
101.898
102.008
101.86
101.991
101.905
101.956
101.987
101.993
101.947
101.944
101.953
102.018
101.983
101.945
101.972
101.874
102.068
101.801
102.074
101.819
101.962
101.988
101.977
101.939
101.944
101.956
102.031
101.994
101.942
101.97
101.852
102.139
101.742
102.187
101.699
102.058
101.865
101.989
101.95
101.944
101.953
102.031
101.998
101.939
101.966
101.836
102.216
101.698
102.317
101.551
102.194
101.761
101.926
101.961
101.956
101.955
102.018
101.994
101.939
101.962
101.826
102.277
101.676
102.441
101.394
102.364
101.642
101.924
101.917
101.952
101.956
101.999
101.983
101.942
101.966
101.826
102.3
101.667
102.53
101.256
102.54
101.525
101.978
102.123
101.664
101.953
101.977
101.97
101.945
101.97
101.836
102.277
101.667
102.562
101.174
102.676
101.438
102.122
102.343
100.96
102.233
101.961
101.959
101.947
101.972
101.852
102.216
101.676
102.53
101.174
102.727
101.394
102.289
102.534
100.353
103.511
100.855
101.952
101.947
101.968
101.874
102.139
101.698
102.441
101.256
102.676
101.394
102.366
102.636
99.9472
104.712
98.7866
103.022
101.944
101.957
101.898
102.068
101.742
102.317
101.394
102.54
101.438
102.289
102.636
99.7935
105.391
97.3548
106.213
99.6261
101.946
101.918
102.008
101.801
102.187
101.551
102.364
101.525
102.122
102.534
99.9472
105.391
96.8093
108.352
96.5495
103.025
101.933
101.966
101.86
102.074
101.699
102.194
101.642
101.978
102.343
100.353
104.712
97.3548
108.352
95.6223
106.774
98.6758
101.942
101.907
101.991
101.819
102.058
101.761
101.924
102.123
100.96
103.511
98.7866
106.213
96.5495
106.774
97.5206
103.548
101.931
101.943
101.905
101.962
101.865
101.926
101.917
101.664
102.233
100.855
103.022
99.6261
103.025
98.6758
103.548
102.791
SCALARS U float 1
LOOKUP_TABLE default
-2.81818e-006
6.26637e-005
8.98678e-005
1.50731e-005
-5.46822e-005
1.46368e-005
0.000165292
0.000266396
0.000296026
0.000296825
0.000379011
0.000366363
0.000408582
0.000282355
0.000223881
7.00443e-005
8.9401e-006
2.48475e-005
-6.4151e-006
-4.23896e-005
3.88555e-006
8.67306e-005
0.000157285
0.000193255
0.000190624
0.000357171
0.000295049
0.000514088
0.000266522
0.000416576
0.000159815
7.13928e-005
-3.31749e-006
-7.82435e-005
-0.000131422
-4.38084e-005
7.95338e-005
0.000129194
7.79352e-005
1.64629e-006
0.000247189
0.000168968
0.000596117
0.000167667
0.00061808
0.000168238
0.000275127
0.000159729
-3.23666e-005
-0.000148016
-0.000140425
-1.85148e-005
8.04538e-005
1.84089e-005
-0.000152475
8.33186e-005
-2.87078e-005
0.000607468
-2.09387e-005
0.000759497
6.84518e-005
0.000502105
0.000363905
-0.000235552
-3.60881e-005
-9.62481e-005
-6.90427e-005
-2.26267e-005
-8.53865e-005
-0.000280053
-6.42959e-005
-0.000228412
0.000544022
-0.000292131
0.000768173
-0.000187721
0.000672861
0.000543971
-0.000298276
0.000995842
-2.56888e-005
-1.23447e-005
-2.3351e-005
-0.000137725
-0.000378619
-0.000212324
-0.000404617
0.000433128
-0.000581158
0.000626704
-0.00061336
0.0006994
0.000610672
-0.000479376
0.0019209
-0.00181379
-7.53077e-006
-1.06038e-005
-9.54276e-005
-0.000341724
-0.000280038
-0.000528249
0.00027937
-0.000816474
0.000396776
-0.00112517
0.000534518
0.000473536
-0.000838824
0.00285488
-0.00311153
0.0037207
-2.85253e-005
-8.00538e-005
-0.000247598
-0.000236353
-0.000518792
0.000143948
-0.000931466
0.000180208
-0.00154643
0.000227377
0.000137057
-0.00137006
0.00343363
-0.00493256
0.00648075
-0.0056954
-3.2887e-005
-0.000157566
-0.000172865
-0.000409961
7.4558e-005
-0.000870577
7.38316e-005
-0.00169216
-7.27349e-005
-0.000254414
-0.00193472
0.00347509
-0.00701536
0.00911531
-0.00951428
0.00865426
-3.56152e-005
-9.077e-005
-0.000257883
4.69049e-005
-0.000665828
9.67358e-005
-0.00148778
-0.000204723
-0.000487725
-0.00227339
0.0031347
-0.00878523
0.0106807
-0.0139832
0.0139257
-0.0105149
-2.2361e-005
-8.87793e-005
5.06472e-005
-0.000396774
0.000177358
-0.00103117
-0.000114854
-0.000430049
-0.00216782
0.00277816
-0.00942361
0.0108732
-0.0175082
0.0180039
-0.0174374
0.0112903
1.63062e-005
5.17067e-005
-0.000138513
0.000238373
-0.000517209
0.000104957
-0.000132968
-0.00161987
0.00261721
-0.00842616
0.0101049
-0.0184345
0.0196314
-0.0236154
0.0149608
-0.0098639
-1.53552e-007
2.85298e-005
0.000235342
-0.000109078
0.000306989
0.000206192
-0.000845792
0.00250769
-0.00614247
0.0088669
-0.0160685
0.0187368
-0.0247624
0.0170702
-0.0166178
0.00257532
6.87933e-005
0.000157882
0.000116169
0.000395801
0.000404782
-0.000115634
0.00215984
-0.00342422
0.0071132
-0.0111616
0.0156596
-0.0206283
0.0176264
-0.0183455
0.00279573
0.00282366
3.35717e-005
0.000161908
0.000348754
0.000423136
0.000371031
0.00149401
-0.000996772
0.00463275
-0.0053034
0.0107238
-0.0122088
0.0142958
-0.0147536
0.00715393
-0.00101597
-0.010615
7.61799e-005
0.000210459
0.000342174
0.000500023
0.000822482
0.00054577
0.00197829
-0.000252953
0.00436866
-0.00199856
0.00657904
-0.00496217
0.00526444
-0.00186489
-0.0016638
0.00375938
SCALARS V float 1
LOOKUP_TABLE default
-2.82458e-006
8.93997e-006
-3.31704e-006
-3.23656e-005
-3.61019e-005
-2.56922e-005
-7.52987e-006
-2.85192e-005
-3.28776e-005
-3.56157e-005
-2.23526e-005
1.63004e-005
-1.53107e-007
6.88072e-005
3.35726e-005
7.61944e-005
6.26592e-005
2.48323e-005
-7.82532e-005
-0.00014802
-9.62765e-005
-1.23536e-005
-1.05867e-005
-8.00452e-005
-0.000157546
-9.07674e-005
-8.87899e-005
5.17064e-005
2.85126e-005
0.000157874
0.000161928
0.000210462
8.98561e-005
-6.42479e-006
-0.000131432
-0.000140451
-6.90512e-005
-2.3388e-005
-9.54444e-005
-0.000247589
-0.00017289
-0.000257902
5.06432e-005
-0.000138509
0.000235353
0.000116175
0.000348754
0.000342182
1.50483e-005
-4.24236e-005
-4.38198e-005
-1.8533e-005
-2.26405e-005
-0.000137734
-0.000341734
-0.000236375
-0.000409937
4.68911e-005
-0.000396777
0.000238392
-0.000109055
0.000395783
0.000423156
0.000500015
-5.47137e-005
3.88948e-006
7.95092e-005
8.04408e-005
-8.54043e-005
-0.000378646
-0.000280082
-0.000518778
7.45372e-005
-0.000665833
0.000177365
-0.000517223
0.000306964
0.000404803
0.000370971
0.000822476
1.46419e-005
8.67109e-005
0.000129201
1.83947e-005
-0.000280055
-0.000212323
-0.00052822
0.000143921
-0.000870587
9.67373e-005
-0.0010312
0.000104924
0.000206207
-0.000115723
0.00149402
0.000545725
0.000165319
0.000157283
7.79171e-005
-0.00015249
-6.42926e-005
-0.000404646
0.00027934
-0.000931486
7.3818e-005
-0.00148779
-0.000114893
-0.000132948
-0.000845871
0.00215986
-0.00099683
0.00197825
0.000266388
0.000193261
1.63405e-006
8.33192e-005
-0.000228466
0.00043311
-0.000816482
0.000180182
-0.00169217
-0.00020476
-0.000430027
-0.00161996
0.00250769
-0.00342425
0.0046327
-0.000252987
0.000296023
0.000190604
0.000247202
-2.87397e-005
0.000544021
-0.00058115
0.000396756
-0.00154643
-7.27535e-005
-0.000487709
-0.00216788
0.00261724
-0.00614249
0.00711316
-0.00530338
0.00436859
0.000296791
0.000357156
0.000168938
0.000607479
-0.000292137
0.000626683
-0.00112519
0.000227385
-0.000254434
-0.00227342
0.00277817
-0.00842617
0.00886688
-0.0111616
0.0107237
-0.00199854
0.000378987
0.000295029
0.000596097
-2.09696e-005
0.000768123
-0.000613387
0.000534531
0.000137011
-0.0019347
0.00313469
-0.0094236
0.0101049
-0.0160684
0.0156594
-0.0122086
0.00657892
0.000366352
0.000514095
0.000167662
0.000759464
-0.000187728
0.000699388
0.000473465
-0.00137002
0.00347505
-0.00878525
0.0108732
-0.0184345
0.0187367
-0.0206281
0.0142956
-0.00496209
0.000408573
0.000266521
0.00061807
6.84425e-005
0.000672861
0.000610633
-0.000838766
0.00343358
-0.00701537
0.0106808
-0.0175082
0.0196314
-0.0247623
0.0176263
-0.0147535
0.00526439
0.000282361
0.00041656
0.000168213
0.000502124
0.000543945
-0.000479305
0.00285485
-0.00493256
0.00911535
-0.0139833
0.018004
-0.0236155
0.0170702
-0.0183454
0.00715386
-0.00186483
0.0002239
0.000159807
0.000275136
0.000363874
-0.000298241
0.00192085
-0.00311153
0.00648079
-0.00951436
0.0139259
-0.0174376
0.0149609
-0.0166179
0.00279574
-0.00101594
-0.00166383
7.00312e-005
7.14004e-005
0.000159705
-0.00023553
0.000995806
-0.00181378
0.00372073
-0.00569547
0.00865439
-0.0105151
0.0112905
-0.00986405
0.00257544
0.00282359
-0.010615
0.00375939
SCALARS B float 1
LOOKUP_TABLE default
1
1
1
1
1
1
1
1
1
1
1
1
1
1
1
1
1
1
1
1
1
1
1
1
1
1
1
1
1
1
1
1
1
1
1
1
1
1
1
1
1
1
1
1
1
1
1
1
1
1
1
1
1
1
1
1
1
1
1
1
1
1
1
1
1
1
1
1
1
1
1
1
1
1
1
1
1
1
1
1
1
1
1
1
1
1
1
1
1
1
1
1
1
1
1
1
1
1
1
1
1
1
1
1
1
1
1
1
1
1
1
1
1
1
1
1
1
1
1
1
1
1
1
1
1
1
1
1
1
1
1
1
1
1
1
1
1
1
1
1
1
1
1
1
1
1
1
1
1
1
1
1
1
1
1
1
1
1
1
1
1
1
1
1
1
1
1
1
1
1
1
1
1
1
1
1
1
1
1
1
1
1
1
1
1
1
1
1
1
1
1
1
1
1
1
1
1
1
1
1
1
1
1
1
1
1
1
1
1
1
1
1
1
1
1
1
1
1
1
1
1
1
1
1
1
1
1
1
1
1
1
1
1
1
1
1
1
1
1
1
1
1
1
1
1
1
1
1
1
1
1
1
1
1
1
1
