# vtk DataFile Version 2.0
HPC Tutorials: Michael Bader, Kaveh Rahnema, Oliver Meister
ASCII
DATASET RECTILINEAR_GRID
DIMENSIONS 17 17 1
X_COORDINATES 17 float
0
0.005
0.01
0.015
0.02
0.025
0.03
0.035
0.04
0.045
0.05
0.055
0.06
0.065
0.07
0.075
0.08
Y_COORDINATES 17 float
0
0.005
0.01
0.015
0.02
0.025
0.03
0.035
0.04
0.045
0.05
0.055
0.06
0.065
0.07
0.075
0.08
Z_COORDINATES 1 float
0
CELL_DATA 256
SCALARS H float 1
LOOKUP_TABLE default
101.905
101.949
101.973
101.949
101.921
101.926
101.952
101.96
101.947
101.945
101.938
101.951
101.934
101.943
101.934
101.937
101.949
101.944
101.928
101.924
101.938
101.961
101.964
101.942
101.947
101.927
101.969
101.923
101.962
101.925
101.94
101.936
101.973
101.928
101.902
101.927
101.973
101.979
101.938
101.941
101.913
101.996
101.912
101.99
101.908
101.947
101.945
101.923
101.949
101.924
101.927
101.969
101.984
101.938
101.935
101.897
102.026
101.91
102.026
101.882
101.957
101.96
101.873
101.959
101.921
101.938
101.973
101.984
101.935
101.93
101.886
102.052
101.915
102.066
101.852
101.971
101.981
101.813
102.082
101.842
101.926
101.961
101.979
101.938
101.93
101.883
102.071
101.923
102.099
101.816
101.984
102.011
101.766
102.25
101.577
102.06
101.952
101.964
101.938
101.935
101.886
102.071
101.929
102.119
101.786
101.99
102.046
101.751
102.448
101.273
102.497
101.613
101.96
101.942
101.941
101.897
102.052
101.923
102.119
101.776
101.993
102.076
101.766
102.648
100.974
102.999
100.905
102.229
101.947
101.947
101.913
102.026
101.915
102.099
101.786
101.993
102.09
101.787
102.803
100.731
103.492
100.194
103.18
101.296
101.945
101.927
101.996
101.91
102.066
101.816
101.99
102.076
101.787
102.862
100.594
103.863
99.5926
104.173
100.215
102.285
101.938
101.969
101.912
102.026
101.852
101.984
102.046
101.766
102.803
100.594
104.004
99.2523
105.048
99.2543
103.064
101.219
101.951
101.923
101.99
101.882
101.971
102.011
101.751
102.648
100.731
103.863
99.2523
105.427
98.6924
103.678
100.605
101.779
101.934
101.962
101.908
101.957
101.981
101.766
102.448
100.974
103.492
99.5926
105.048
98.6924
104.006
99.9857
100.806
103.126
101.943
101.925
101.947
101.96
101.813
102.25
101.273
102.999
100.193
104.173
99.2543
103.678
99.9857
100.221
104.416
101.344
101.934
101.94
101.945
101.873
102.082
101.577
102.497
100.905
103.18
100.215
103.064
100.605
100.806
104.416
98.6372
103.9
101.937
101.936
101.923
101.959
101.842
102.06
101.613
102.229
101.296
102.285
101.219
101.779
103.126
101.344
103.9
100.191
SCALARS U float 1
LOOKUP_TABLE default
-1.10449e-005
-0.000100549
-0.000115745
-2.47985e-006
0.000109384
0.000108196
4.51887e-005
8.65581e-005
0.000187447
0.000311351
0.000335388
0.00034941
0.000339582
0.000255657
0.000215271
3.04561e-005
-2.01634e-005
-5.34091e-005
-2.58861e-005
1.12237e-005
1.13611e-005
-2.61745e-005
4.46048e-005
0.000103872
0.000262848
0.000246559
0.000329851
0.000350881
0.000286239
0.000393301
6.02612e-005
0.000205449
-1.00066e-005
4.23051e-005
5.58149e-005
-3.67768e-005
-0.000170511
-9.63085e-005
6.24846e-007
0.000239198
0.000144252
0.000253073
0.000269335
0.000260479
0.00055631
1.64848e-005
0.000564423
-0.000247936
6.91994e-006
6.7495e-005
1.4947e-005
-0.000173235
-0.000202186
-0.000157815
0.000147088
2.23673e-005
0.000134423
0.000100703
0.000149958
0.000664204
-0.000116792
0.00101332
-0.000487468
0.000700478
-4.68999e-006
-3.14044e-005
-0.000154655
-0.000195781
-0.000216375
4.71873e-005
-0.000130883
-4.13969e-005
-0.000142654
-4.98317e-005
0.00067561
-0.000349351
0.00144136
-0.000938015
0.00151956
-0.000852972
-3.64485e-005
-0.000169539
-0.000220664
-0.00023325
-2.47972e-006
-0.000218994
-0.000203831
-0.000409463
-0.000318538
0.000567704
-0.000676169
0.00170828
-0.00161138
0.00247593
-0.00155084
0.00132068
-5.20342e-005
-0.000178939
-0.000240517
-7.59362e-005
-0.000257316
-0.000279674
-0.000581169
-0.000569519
0.000366832
-0.00104593
0.00172825
-0.00249493
0.00326609
-0.00257962
0.00258602
-0.000957182
-5.01996e-005
-0.000131822
-9.75805e-005
-0.000259701
-0.000292768
-0.000608941
-0.000700052
0.000157171
-0.00135232
0.001539
-0.00343328
0.00363157
-0.0038543
0.00390019
-0.00174531
0.00023042
-1.83888e-005
-4.96336e-005
-0.000171191
-0.000230736
-0.000507466
-0.000674761
2.11311e-005
-0.00147721
0.00128088
-0.00409839
0.00352578
-0.00517753
0.00475748
-0.00302831
0.000421243
0.00221519
-3.37117e-005
-6.69529e-005
-0.000121917
-0.000310954
-0.000507576
-2.0448e-006
-0.00135912
0.00109337
-0.00416254
0.00315302
-0.0060919
0.00493889
-0.00452373
0.000138233
0.00286441
-0.00682715
5.10701e-006
-4.87527e-005
-0.0001174
-0.000272934
7.22383e-005
-0.00102757
0.00101529
-0.00354889
0.00278902
-0.00611267
0.0046225
-0.00555866
-0.000704654
0.00281243
-0.0106437
0.0132904
-2.13613e-005
3.2345e-006
-7.69167e-005
0.000167926
-0.000594765
0.00098252
-0.00250146
0.00254419
-0.00512127
0.00415668
-0.00543745
-0.00124714
0.00213032
-0.0142569
0.0192724
-0.0231229
4.0509e-005
2.68833e-005
0.000207896
-0.000204941
0.000899642
-0.00139736
0.00230988
-0.00350468
0.00376016
-0.00414128
-0.000578084
0.00178446
-0.0155152
0.0215366
-0.0322808
0.0315177
2.60072e-005
0.000169663
4.53711e-005
0.000714305
-0.00051473
0.00191855
-0.00185744
0.00333547
-0.00238935
0.00100978
0.00194563
-0.0115043
0.0189216
-0.0344247
0.0378197
-0.0372404
6.69935e-005
0.000129787
0.000460337
4.71771e-005
0.00132307
-0.000529749
0.00256855
-0.000850637
0.00228332
0.00154366
-0.00422399
0.0127557
-0.0220217
0.0300415
-0.0361467
0.0312813
6.4643e-005
0.000228179
0.000284152
0.000681495
0.000381796
0.00137949
0.00048896
0.00202366
0.00118907
0.00091045
0.00461491
-0.00321274
0.0115133
-0.012668
0.0154184
-0.0107446
SCALARS V float 1
LOOKUP_TABLE default
-1.10398e-005
-2.01642e-005
-9.99684e-006
6.92734e-006
-4.68786e-006
-3.6451e-005
-5.20462e-005
-5.01999e-005
-1.83935e-005
-3.37064e-005
5.10667e-006
-2.13592e-005
4.05163e-005
2.60076e-005
6.7009e-005
6.46573e-005
-0.000100529
-5.3387e-005
4.23393e-005
6.75112e-005
-3.14085e-005
-0.000169547
-0.000178975
-0.000131833
-4.96264e-005
-6.69499e-005
-4.8772e-005
3.25446e-006
2.68903e-005
0.00016967
0.000129819
0.000228206
-0.00011571
-2.58611e-005
5.58402e-005
1.49814e-005
-0.00015465
-0.000220674
-0.0002405
-9.7571e-005
-0.000171165
-0.000121919
-0.000117383
-7.69079e-005
0.00020787
4.53984e-005
0.000460341
0.000284183
-2.47866e-006
1.12398e-005
-3.67667e-005
-0.000173232
-0.000195754
-0.000233223
-7.59359e-005
-0.000259687
-0.000230743
-0.000310959
-0.000272927
0.000167893
-0.000204906
0.000714295
4.71965e-005
0.000681508
0.000109376
1.13678e-005
-0.000170478
-0.00020217
-0.000216357
-2.46909e-006
-0.000257321
-0.000292779
-0.000507476
-0.000507567
7.2204e-005
-0.000594742
0.000899621
-0.00051471
0.00132306
0.000381795
0.000108169
-2.61918e-005
-9.63117e-005
-0.00015781
4.72007e-005
-0.000218982
-0.000279664
-0.00060894
-0.000674755
-2.07077e-006
-0.00102753
0.00098249
-0.00139734
0.00191851
-0.000529749
0.00137949
4.51543e-005
4.45988e-005
5.97749e-007
0.000147073
-0.000130878
-0.000203822
-0.000581161
-0.000700052
2.11031e-005
-0.0013591
0.00101525
-0.0025014
0.00230984
-0.00185743
0.00256853
0.000488934
8.65597e-005
0.000103847
0.000239177
2.23398e-005
-4.1424e-005
-0.000409489
-0.000569524
0.000157159
-0.00147718
0.00109336
-0.00354884
0.00254414
-0.00350465
0.00333545
-0.000850638
0.00202364
0.000187454
0.000262842
0.000144223
0.000134413
-0.000142662
-0.000318549
0.00036684
-0.00135233
0.00128086
-0.00416254
0.00278897
-0.00512126
0.00376014
-0.00238936
0.00228333
0.00118907
0.000311327
0.000246533
0.000253073
0.000100707
-4.98431e-005
0.000567714
-0.00104594
0.001539
-0.00409841
0.00315301
-0.00611268
0.00415666
-0.00414128
0.00100979
0.00154361
0.00091046
0.000335371
0.000329853
0.000269316
0.000149933
0.000675617
-0.000676209
0.00172826
-0.00343332
0.00352579
-0.00609191
0.00462249
-0.00543745
-0.000578073
0.00194559
-0.00422394
0.00461486
0.000349409
0.000350849
0.000260466
0.000664218
-0.000349391
0.00170831
-0.00249499
0.0036316
-0.00517755
0.00493889
-0.00555867
-0.00124714
0.00178443
-0.0115042
0.0127556
-0.00321275
0.000339567
0.000286233
0.00055633
-0.000116838
0.00144135
-0.00161143
0.00326613
-0.00385434
0.00475748
-0.00452375
-0.000704682
0.00213031
-0.0155152
0.0189215
-0.0220217
0.0115133
0.000255676
0.000393321
1.64636e-005
0.00101334
-0.000938042
0.00247594
-0.00257965
0.00390019
-0.00302833
0.000138202
0.00281246
-0.014257
0.0215366
-0.0344247
0.0300414
-0.0126679
0.000215293
6.02582e-005
0.000564426
-0.000487482
0.00151958
-0.00155087
0.00258602
-0.00174531
0.00042121
0.00286445
-0.0106438
0.0192725
-0.0322808
0.0378197
-0.0361467
0.0154184
3.04665e-005
0.000205464
-0.000247943
0.000700473
-0.000852982
0.00132067
-0.000957174
0.000230414
0.00221523
-0.00682721
0.0132905
-0.023123
0.0315178
-0.0372404
0.0312813
-0.0107446
SCALARS B float 1
LOOKUP_TABLE default
1
1
1
1
1
1
1
1
1
1
1
1
1
1
1
1
1
1
1
1
1
1
1
1
1
1
1
1
1
1
1
1
1
1
1
1
1
1
1
1
1
1
1
1
1
1
1
1
1
1
1
1
1
1
1
1
1
1
1
1
1
1
1
1
1
1
1
1
1
1
1
1
1
1
1
1
1
1
1
1
1
1
1
1
1
1
1
1
1
1
1
1
1
1
1
1
1
1
1
1
1
1
1
1
1
1
1
1
1
1
1
1
1
1
1
1
1
1
1
1
1
1
1
1
1
1
1
1
1
1
1
1
1
1
1
1
1
1
1
1
1
1
1
1
1
1
1
1
1
1
1
1
1
1
1
1
1
1
1
1
1
1
1
1
1
1
1
1
1
1
1
1
1
1
1
1
1
1
1
1
1
1
1
1
1
1
1
1
1
1
1
1
1
1
1
1
1
1
1
1
1
1
1
1
1
1
1
1
1
1
1
1
1
1
1
1
1
1
1
1
1
1
1
1
1
1
1
1
1
1
1
1
1
1
1
1
1
1
1
1
1
1
1
1
1
1
1
1
1
1
1
1
1
1
1
1
