# vtk DataFile Version 2.0
HPC Tutorials: Michael Bader, Kaveh Rahnema, Oliver Meister
ASCII
DATASET RECTILINEAR_GRID
DIMENSIONS 17 17 1
X_COORDINATES 17 float
0
0.005
0.01
0.015
0.02
0.025
0.03
0.035
0.04
0.045
0.05
0.055
0.06
0.065
0.07
0.075
0.08
Y_COORDINATES 17 float
0
0.005
0.01
0.015
0.02
0.025
0.03
0.035
0.04
0.045
0.05
0.055
0.06
0.065
0.07
0.075
0.08
Z_COORDINATES 1 float
0
CELL_DATA 256
SCALARS H float 1
LOOKUP_TABLE default
101.996
101.969
101.928
101.925
101.964
101.992
101.982
101.951
101.943
101.949
101.95
101.952
101.936
101.946
101.93
101.937
101.969
101.955
101.952
101.969
101.976
101.971
101.946
101.95
101.958
101.956
101.967
101.923
101.968
101.908
101.956
101.925
101.928
101.952
101.998
102.006
101.976
101.921
101.933
101.964
101.973
101.992
101.907
101.998
101.871
101.996
101.89
101.943
101.925
101.969
102.006
101.998
101.932
101.925
101.959
101.985
102.018
101.89
102.029
101.827
102.06
101.837
101.978
101.912
101.964
101.976
101.976
101.932
101.934
101.97
102
102.038
101.869
102.052
101.78
102.148
101.777
102.035
101.89
101.91
101.992
101.971
101.921
101.925
101.97
102.012
102.057
101.854
102.063
101.739
102.25
101.724
102.119
101.858
101.835
101.954
101.982
101.946
101.933
101.959
102
102.057
101.85
102.069
101.712
102.348
101.688
102.217
101.809
101.766
102.173
101.716
101.951
101.95
101.964
101.985
102.038
101.854
102.069
101.702
102.41
101.673
102.308
101.749
101.727
102.439
101.195
102.192
101.943
101.958
101.973
102.018
101.869
102.063
101.712
102.41
101.669
102.363
101.695
101.716
102.715
100.733
103.152
101.178
101.949
101.956
101.992
101.89
102.052
101.739
102.348
101.673
102.363
101.673
101.718
102.941
100.421
104.156
99.6264
102.54
101.95
101.967
101.907
102.029
101.78
102.25
101.688
102.308
101.695
101.718
103.033
100.277
104.956
98.354
104.68
100.278
101.952
101.923
101.998
101.827
102.148
101.724
102.217
101.749
101.716
102.941
100.277
105.262
97.5748
106.307
97.9783
103.016
101.936
101.968
101.871
102.06
101.777
102.119
101.809
101.727
102.715
100.421
104.956
97.5748
106.836
96.4896
105.493
100.122
101.946
101.908
101.996
101.837
102.035
101.858
101.766
102.439
100.733
104.156
98.354
106.307
96.4896
106.097
98.5224
102.43
101.93
101.956
101.89
101.977
101.89
101.835
102.173
101.195
103.152
99.6264
104.68
97.9783
105.493
98.5224
102.806
101.979
101.937
101.925
101.943
101.912
101.91
101.954
101.716
102.192
101.178
102.54
100.278
103.016
100.122
102.43
101.979
103.056
SCALARS U float 1
LOOKUP_TABLE default
-3.99581e-005
-8.07908e-005
1.40931e-005
9.41426e-005
7.31496e-005
4.2325e-005
0.000109098
0.000240057
0.000305931
0.000359136
0.000353702
0.000421255
0.000365893
0.000326766
0.000208785
5.73164e-005
6.26847e-006
3.85977e-005
3.5147e-005
-4.19906e-006
-2.06747e-005
4.59952e-005
0.00016949
0.000210442
0.000303398
0.000248475
0.000445106
0.000332812
0.000452419
0.000301833
0.000187398
0.000148951
3.29342e-005
7.1869e-005
-2.14293e-005
-0.000108099
-4.77075e-005
0.000109694
0.000130461
0.00020289
6.32468e-005
0.000407724
0.000233501
0.000561806
0.00032353
0.000312883
0.000376055
-0.000142691
1.14457e-005
-2.59544e-005
-0.000120499
-0.000115468
2.56043e-005
5.04029e-005
0.000103683
-0.000154002
0.000280132
5.2254e-005
0.000618209
0.000258976
0.00038298
0.000599884
-0.000196022
0.000654426
-3.53038e-005
-0.000125877
-0.000140613
-3.92469e-005
-3.52893e-005
-1.89325e-006
-0.000345584
0.000110551
-0.000184103
0.000583008
8.09365e-005
0.000333112
0.000735804
-0.000366378
0.0013784
-0.00105546
-4.77902e-005
-0.000121839
-7.24398e-005
-8.89627e-005
-8.8599e-005
-0.000483756
-6.46796e-005
-0.000415088
0.000471545
-0.000191289
0.000116191
0.000674338
-0.000689582
0.00221296
-0.00183749
0.00220797
-3.88713e-005
-5.52801e-005
-9.3169e-005
-0.000115534
-0.000508938
-0.000194514
-0.000597268
0.000309711
-0.00047758
-0.000220525
0.000377251
-0.00118867
0.00290825
-0.0029667
0.00408343
-0.00313534
-2.02608e-005
-6.36656e-005
-9.99806e-005
-0.000417641
-0.000219251
-0.00065863
0.000144651
-0.000688181
-0.000542602
-4.56262e-005
-0.00179611
0.00323823
-0.00432027
0.00599298
-0.00547482
0.00465601
-2.04362e-005
-7.002e-005
-0.000276179
-0.000169557
-0.000574388
4.61353e-005
-0.000737587
-0.000699052
-0.000380249
-0.00230901
0.00315284
-0.00563765
0.00728211
-0.0085443
0.00781392
-0.00512518
-3.07847e-005
-0.00012334
-9.49191e-005
-0.000398621
2.36391e-005
-0.000608766
-0.00061716
-0.000445284
-0.002474
0.00281331
-0.00648532
0.00765488
-0.0115592
0.0105399
-0.00870329
0.00477693
-2.03799e-006
-2.72036e-005
-0.000187459
5.22202e-005
-0.000371464
-0.000366557
-0.000233423
-0.00216493
0.00245945
-0.0064377
0.0073032
-0.0134205
0.0117878
-0.0125465
0.00687789
-0.00209808
-1.91602e-005
-1.94643e-005
9.10836e-005
-0.000116032
-8.2958e-005
9.28103e-005
-0.0014969
0.00221092
-0.00540599
0.00665807
-0.0130087
0.0114827
-0.0148914
0.00818556
-0.00495843
-0.00569339
4.90658e-005
8.24978e-005
6.67119e-005
0.000124998
0.000345955
-0.000737223
0.00198882
-0.00374013
0.00587216
-0.0103162
0.0104514
-0.014256
0.00862904
-0.00665214
-0.00918286
0.0107331
1.27432e-005
0.00012838
0.000204568
0.000426357
-0.000117525
0.00163675
-0.00196084
0.00475505
-0.00654955
0.00896501
-0.0107288
0.00874024
-0.00639193
-0.00698126
0.0104352
-0.0245316
8.08852e-005
0.000167665
0.000353832
0.000248356
0.00111911
-0.000468938
0.00317274
-0.0028068
0.00643641
-0.00584901
0.00800288
-0.00490124
-0.0012483
0.0074306
-0.0188553
0.0239618
5.9103e-005
0.000216428
0.000332851
0.000617411
0.000452892
0.00145572
0.000188426
0.00290735
-0.000628263
0.00443165
-0.000840834
0.00209163
0.000915858
-0.00318904
0.0126307
-0.00928662
SCALARS V float 1
LOOKUP_TABLE default
-3.99561e-005
6.26847e-006
3.29358e-005
1.14486e-005
-3.53052e-005
-4.77898e-005
-3.88733e-005
-2.02628e-005
-2.04232e-005
-3.07825e-005
-2.01629e-006
-1.91563e-005
4.90674e-005
1.27519e-005
8.0886e-005
5.91058e-005
-8.07826e-005
3.86135e-005
7.18793e-005
-2.5944e-005
-0.000125873
-0.000121835
-5.52604e-005
-6.36275e-005
-7.00058e-005
-0.000123313
-2.71634e-005
-1.94285e-005
8.25206e-005
0.000128392
0.000167665
0.000216425
1.40981e-005
3.51497e-005
-2.14324e-005
-0.000120478
-0.000140616
-7.24536e-005
-9.31583e-005
-9.99797e-005
-0.000276159
-9.49091e-005
-0.000187431
9.10925e-005
6.67444e-005
0.000204591
0.000353845
0.000332867
9.41404e-005
-4.1971e-006
-0.000108116
-0.000115475
-3.9258e-005
-8.89418e-005
-0.000115543
-0.000417642
-0.000169547
-0.000398614
5.22264e-005
-0.000115995
0.000125004
0.000426377
0.000248395
0.000617439
7.31348e-005
-2.06775e-005
-4.76938e-005
2.55962e-005
-3.52803e-005
-8.86076e-005
-0.000508922
-0.000219239
-0.000574383
2.36473e-005
-0.000371459
-8.29547e-005
0.00034598
-0.000117484
0.00111913
0.000452946
4.23408e-005
4.60016e-005
0.000109716
5.03958e-005
-1.90127e-006
-0.000483757
-0.000194512
-0.00065862
4.61395e-005
-0.000608763
-0.000366548
9.27994e-005
-0.000737194
0.00163676
-0.000468899
0.00145573
0.000109135
0.000169516
0.00013046
0.000103714
-0.000345578
-6.4673e-005
-0.000597267
0.000144662
-0.000737587
-0.000617156
-0.000233438
-0.00149687
0.0019888
-0.00196084
0.00317275
0.000188422
0.000240082
0.000210465
0.000202908
-0.000153992
0.00011058
-0.000415079
0.00030972
-0.000688177
-0.000699044
-0.000445282
-0.00216492
0.00221091
-0.00374014
0.00475508
-0.00280686
0.00290741
0.000305943
0.000303413
6.32604e-005
0.000280133
-0.000184105
0.000471554
-0.000477565
-0.000542593
-0.000380246
-0.00247398
0.00245946
-0.00540599
0.00587219
-0.00654964
0.00643654
-0.000628285
0.000359151
0.000248482
0.000407737
5.22751e-005
0.000583016
-0.00019128
-0.000220523
-4.56167e-005
-0.00230901
0.00281331
-0.00643772
0.00665807
-0.0103163
0.00896515
-0.00584913
0.00443173
0.000353743
0.000445128
0.000233507
0.000618205
8.09445e-005
0.000116198
0.000377276
-0.00179611
0.00315286
-0.00648532
0.00730322
-0.0130087
0.0104515
-0.010729
0.00800303
-0.000840892
0.000421267
0.000332829
0.00056184
0.000258983
0.000333125
0.000674361
-0.00118868
0.00323825
-0.00563765
0.00765488
-0.0134204
0.0114827
-0.0142561
0.00874038
-0.00490139
0.00209169
0.000365885
0.000452445
0.000323523
0.000383005
0.000735808
-0.000689611
0.00290826
-0.00432027
0.00728212
-0.0115592
0.0117877
-0.0148913
0.00862907
-0.00639202
-0.00124822
0.00091581
0.000326762
0.000301822
0.000312903
0.000599879
-0.000366383
0.00221297
-0.00296669
0.00599294
-0.00854421
0.0105398
-0.0125464
0.00818549
-0.00665213
-0.00698126
0.00743055
-0.00318902
0.000208795
0.000187418
0.000376085
-0.000196012
0.00137842
-0.00183748
0.00408341
-0.00547472
0.00781377
-0.00870313
0.00687774
-0.00495831
-0.00918289
0.0104352
-0.0188552
0.0126307
5.73124e-005
0.000148962
-0.000142695
0.000654457
-0.00105547
0.00220795
-0.00313526
0.0046559
-0.00512505
0.00477679
-0.00209794
-0.00569347
0.0107332
-0.0245316
0.0239618
-0.0092866
SCALARS B float 1
LOOKUP_TABLE default
1
1
1
1
1
1
1
1
1
1
1
1
1
1
1
1
1
1
1
1
1
1
1
1
1
1
1
1
1
1
1
1
1
1
1
1
1
1
1
1
1
1
1
1
1
1
1
1
1
1
1
1
1
1
1
1
1
1
1
1
1
1
1
1
1
1
1
1
1
1
1
1
1
1
1
1
1
1
1
1
1
1
1
1
1
1
1
1
1
1
1
1
1
1
1
1
1
1
1
1
1
1
1
1
1
1
1
1
1
1
1
1
1
1
1
1
1
1
1
1
1
1
1
1
1
1
1
1
1
1
1
1
1
1
1
1
1
1
1
1
1
1
1
1
1
1
1
1
1
1
1
1
1
1
1
1
1
1
1
1
1
1
1
1
1
1
1
1
1
1
1
1
1
1
1
1
1
1
1
1
1
1
1
1
1
1
1
1
1
1
1
1
1
1
1
1
1
1
1
1
1
1
1
1
1
1
1
1
1
1
1
1
1
1
1
1
1
1
1
1
1
1
1
1
1
1
1
1
1
1
1
1
1
1
1
1
1
1
1
1
1
1
1
1
1
1
1
1
1
1
1
1
1
1
1
1
