# vtk DataFile Version 2.0
HPC Tutorials: Michael Bader, Kaveh Rahnema, Oliver Meister
ASCII
DATASET RECTILINEAR_GRID
DIMENSIONS 17 17 1
X_COORDINATES 17 float
0
0.005
0.01
0.015
0.02
0.025
0.03
0.035
0.04
0.045
0.05
0.055
0.06
0.065
0.07
0.075
0.08
Y_COORDINATES 17 float
0
0.005
0.01
0.015
0.02
0.025
0.03
0.035
0.04
0.045
0.05
0.055
0.06
0.065
0.07
0.075
0.08
Z_COORDINATES 1 float
0
CELL_DATA 256
SCALARS H float 1
LOOKUP_TABLE default
101.979
101.951
101.944
101.972
101.993
101.984
101.963
101.965
101.966
101.962
101.937
101.92
101.905
101.885
101.882
101.87
101.951
101.963
101.982
101.987
101.976
101.96
101.975
101.976
101.987
101.952
101.941
101.928
101.894
101.914
101.86
101.886
101.944
101.982
101.999
101.979
101.949
101.975
101.99
102.016
101.963
101.955
101.949
101.906
101.964
101.837
101.944
101.859
101.972
101.987
101.979
101.95
101.975
101.996
102.042
101.975
101.963
101.962
101.918
102.029
101.806
102.037
101.783
101.933
101.993
101.976
101.949
101.975
101.998
102.054
101.981
101.966
101.971
101.933
102.101
101.772
102.152
101.669
102.075
101.823
101.984
101.96
101.975
101.996
102.054
101.981
101.962
101.972
101.949
102.175
101.743
102.271
101.526
102.271
101.654
101.968
101.963
101.975
101.99
102.042
101.981
101.962
101.971
101.958
102.232
101.725
102.373
101.371
102.514
101.451
102.142
101.815
101.965
101.976
102.016
101.975
101.966
101.972
101.958
102.253
101.716
102.44
101.236
102.767
101.245
102.386
101.725
101.827
101.966
101.987
101.963
101.963
101.971
101.949
102.232
101.716
102.462
101.156
102.966
101.084
102.702
101.593
101.54
102.023
101.962
101.952
101.955
101.962
101.933
102.175
101.725
102.44
101.156
103.042
100.997
102.99
101.438
101.331
102.77
101.224
101.937
101.941
101.949
101.918
102.101
101.743
102.373
101.236
102.966
100.997
103.108
101.322
101.238
103.434
99.6291
102.882
101.92
101.928
101.906
102.029
101.772
102.271
101.371
102.767
101.084
102.99
101.322
101.207
103.823
98.5832
105.6
99.789
101.905
101.894
101.964
101.806
102.152
101.526
102.514
101.245
102.702
101.438
101.238
103.823
98.2408
107.68
96.4932
103.278
101.885
101.914
101.837
102.037
101.669
102.271
101.451
102.386
101.593
101.331
103.434
98.5832
107.68
95.5447
107.682
98.571
101.882
101.86
101.944
101.783
102.075
101.654
102.142
101.725
101.54
102.77
99.6291
105.6
96.4932
107.682
96.7085
104.026
101.87
101.886
101.859
101.933
101.823
101.968
101.815
101.827
102.023
101.224
102.882
99.789
103.278
98.571
104.026
101.56
SCALARS U float 1
LOOKUP_TABLE default
-9.10171e-006
1.84204e-005
-2.0058e-005
-0.00014047
-0.000216136
-0.000153974
-5.10986e-005
-9.23664e-006
-1.02185e-005
1.33793e-005
0.000108095
0.000125767
0.000193132
0.000117432
0.000130128
2.78488e-005
-1.10622e-005
-4.85426e-005
-0.000113844
-0.000160314
-0.000133515
-0.000103975
-9.07535e-005
-9.55332e-005
-6.84248e-005
7.72012e-005
5.40625e-005
0.000252588
5.6706e-005
0.000274636
3.03521e-005
8.05916e-005
-3.15372e-005
-0.000152322
-0.00020638
-0.000128777
-7.07798e-005
-0.00010287
-0.000205142
-0.000218369
-4.31931e-006
-3.53449e-005
0.000298856
-6.79537e-005
0.000442235
-4.4427e-005
0.00028309
2.15538e-005
-5.21724e-005
-0.000184534
-0.000183578
-0.000120041
-0.000114771
-0.000249948
-0.000342306
-0.000130117
-0.000170734
0.000294465
-0.000266842
0.000568383
-0.00020853
0.000560925
4.13711e-005
-3.25367e-005
-4.33618e-005
-0.00010605
-0.000126787
-0.000170793
-0.000317188
-0.000435229
-0.000237633
-0.000308325
0.00022823
-0.000540059
0.000579767
-0.000493608
0.00084083
-9.7142e-007
9.50694e-005
0.000560413
-2.90836e-005
-4.48251e-005
-0.000126093
-0.000320947
-0.000498814
-0.000345181
-0.000430893
0.000128459
-0.00082983
0.000449714
-0.000908652
0.00102438
-0.000158421
0.000201841
0.0010513
-0.00122512
-2.18907e-005
-8.10255e-005
-0.000231868
-0.000436778
-0.000384229
-0.000521281
6.71669e-006
-0.00105555
0.000231202
-0.00138525
0.00103291
-0.000481608
0.000160119
0.00145495
-0.0020064
0.00297002
-5.00214e-005
-0.000163668
-0.000324372
-0.000326391
-0.000509508
-8.35048e-005
-0.00114285
2.54741e-005
-0.00177142
0.000863687
-0.000929451
-0.000103548
0.00151133
-0.00311554
0.00516956
-0.00514521
-4.98818e-005
-0.000202605
-0.00024271
-0.000417682
-0.000106175
-0.0010434
-7.01697e-005
-0.00190173
0.000611697
-0.00133817
-0.000510269
0.00114116
-0.00448909
0.00724768
-0.00848859
0.00881995
-5.14576e-005
-0.000127487
-0.000277597
-8.60125e-005
-0.000799318
-3.48455e-005
-0.00170233
0.000412343
-0.00150282
-0.000827459
0.000613014
-0.00576858
0.00839095
-0.0124113
0.014271
-0.0124997
-2.71382e-005
-0.000114983
-3.61309e-005
-0.000496419
6.34365e-005
-0.00125168
0.000344485
-0.00131933
-0.000840603
0.00035422
-0.00632533
0.0084379
-0.0155145
0.0184927
-0.0205295
0.0162574
-3.94782e-006
3.30411e-006
-0.000214169
0.000145322
-0.000725412
0.000377332
-0.000867522
-0.000534403
0.000533166
-0.00571338
0.00780466
-0.0162684
0.0201763
-0.0278694
0.022985
-0.0177064
-5.36472e-006
-2.59075e-005
0.000163823
-0.000282861
0.000417839
-0.000362
-8.23265e-005
0.000895138
-0.00409732
0.00684388
-0.0141419
0.0191806
-0.0294276
0.0262453
-0.0269881
0.0162809
4.58102e-005
0.000112528
-7.39405e-006
0.00039574
4.99914e-006
0.00030609
0.00104179
-0.00210532
0.00547153
-0.00966206
0.0156757
-0.024122
0.0251604
-0.0302514
0.0195315
-0.011044
2.40608e-005
9.34639e-005
0.000294857
0.000182276
0.000490595
0.00084073
-0.000375872
0.00349454
-0.00427967
0.0102395
-0.013647
0.018593
-0.0222536
0.0186782
-0.0162159
0.00413825
5.83936e-005
0.000157403
0.000224172
0.000421746
0.000555922
0.000572385
0.00148671
4.3781e-006
0.00394406
-0.00213124
0.00738411
-0.00613477
0.00960551
-0.00744321
0.00196183
-0.00448828
SCALARS V float 1
LOOKUP_TABLE default
-9.10226e-006
-1.10633e-005
-3.15381e-005
-5.21644e-005
-4.33563e-005
-2.90797e-005
-2.18911e-005
-5.00256e-005
-4.98755e-005
-5.14609e-005
-2.71394e-005
-3.94913e-006
-5.36303e-006
4.58169e-005
2.40525e-005
5.83891e-005
1.84188e-005
-4.85433e-005
-0.000152323
-0.000184514
-0.000106033
-4.48181e-005
-8.10425e-005
-0.00016368
-0.000202613
-0.000127489
-0.000114987
3.2921e-006
-2.59164e-005
0.000112527
9.34437e-005
0.000157396
-2.00672e-005
-0.000113857
-0.000206385
-0.000183605
-0.000126799
-0.000126092
-0.000231864
-0.000324373
-0.000242724
-0.000277596
-3.61346e-005
-0.000214175
0.000163807
-7.44357e-006
0.000294842
0.000224148
-0.000140478
-0.000160342
-0.000128795
-0.000120057
-0.00017081
-0.000320978
-0.000436797
-0.000326423
-0.000417684
-8.60277e-005
-0.000496413
0.000145318
-0.000282893
0.00039573
0.000182235
0.000421723
-0.000216159
-0.000133531
-7.0806e-005
-0.000114799
-0.000317208
-0.000498837
-0.000384254
-0.000509507
-0.000106186
-0.000799308
6.34342e-005
-0.000725433
0.00041784
4.99869e-006
0.000490591
0.000555913
-0.000153998
-0.000103978
-0.000102893
-0.000249959
-0.000435248
-0.00034519
-0.00052128
-8.35265e-005
-0.00104342
-3.48539e-005
-0.00125169
0.000377342
-0.000362002
0.00030607
0.000840733
0.000572368
-5.11214e-005
-9.07607e-005
-0.000205141
-0.000342321
-0.000237642
-0.000430913
6.69374e-006
-0.00114286
-7.01819e-005
-0.00170234
0.000344469
-0.000867521
-8.2324e-005
0.00104182
-0.000375869
0.00148671
-9.24031e-006
-9.55439e-005
-0.000218385
-0.000130112
-0.000308356
0.000128444
-0.00105557
2.54552e-005
-0.00190175
0.000412316
-0.00131933
-0.000534418
0.000895133
-0.00210533
0.00349457
4.38829e-006
-1.02207e-005
-6.84431e-005
-4.31604e-006
-0.000170752
0.000228207
-0.000829847
0.000231186
-0.00177143
0.000611684
-0.00150283
-0.000840616
0.000533147
-0.00409733
0.00547154
-0.00427967
0.00394404
1.34081e-005
7.72327e-005
-3.53263e-005
0.000294479
-0.000540042
0.000449709
-0.00138526
0.000863682
-0.00133819
-0.000827469
0.000354211
-0.00571338
0.0068439
-0.00966205
0.0102395
-0.00213124
0.000108105
5.40805e-005
0.00029887
-0.000266833
0.00057978
-0.000908632
0.00103292
-0.000929464
-0.000510275
0.000613009
-0.00632534
0.00780469
-0.0141419
0.0156757
-0.013647
0.00738407
0.000125761
0.000252587
-6.79433e-005
0.000568396
-0.000493576
0.00102439
-0.000481604
-0.000103535
0.00114119
-0.00576856
0.00843789
-0.0162684
0.0191806
-0.024122
0.018593
-0.00613477
0.000193129
5.67006e-005
0.000442223
-0.000208504
0.000840836
-0.000158398
0.000160137
0.00151134
-0.00448908
0.00839094
-0.0155145
0.0201763
-0.0294276
0.0251604
-0.0222536
0.00960553
0.000117439
0.000274629
-4.4386e-005
0.000560945
-9.51739e-007
0.00020187
0.00145495
-0.00311552
0.00724766
-0.0124113
0.0184927
-0.0278694
0.0262453
-0.0302513
0.0186782
-0.00744318
0.000130117
3.03741e-005
0.00028308
4.13775e-005
9.50914e-005
0.0010513
-0.00200636
0.00516955
-0.00848859
0.014271
-0.0205295
0.022985
-0.0269881
0.0195315
-0.0162159
0.00196183
2.7865e-005
8.05874e-005
2.15537e-005
-3.25309e-005
0.000560409
-0.00122511
0.00297002
-0.0051452
0.00881999
-0.0124997
0.0162574
-0.0177063
0.0162809
-0.011044
0.00413827
-0.00448826
SCALARS B float 1
LOOKUP_TABLE default
1
1
1
1
1
1
1
1
1
1
1
1
1
1
1
1
1
1
1
1
1
1
1
1
1
1
1
1
1
1
1
1
1
1
1
1
1
1
1
1
1
1
1
1
1
1
1
1
1
1
1
1
1
1
1
1
1
1
1
1
1
1
1
1
1
1
1
1
1
1
1
1
1
1
1
1
1
1
1
1
1
1
1
1
1
1
1
1
1
1
1
1
1
1
1
1
1
1
1
1
1
1
1
1
1
1
1
1
1
1
1
1
1
1
1
1
1
1
1
1
1
1
1
1
1
1
1
1
1
1
1
1
1
1
1
1
1
1
1
1
1
1
1
1
1
1
1
1
1
1
1
1
1
1
1
1
1
1
1
1
1
1
1
1
1
1
1
1
1
1
1
1
1
1
1
1
1
1
1
1
1
1
1
1
1
1
1
1
1
1
1
1
1
1
1
1
1
1
1
1
1
1
1
1
1
1
1
1
1
1
1
1
1
1
1
1
1
1
1
1
1
1
1
1
1
1
1
1
1
1
1
1
1
1
1
1
1
1
1
1
1
1
1
1
1
1
1
1
1
1
1
1
1
1
1
1
