# vtk DataFile Version 2.0
HPC Tutorials: Michael Bader, Kaveh Rahnema, Oliver Meister
ASCII
DATASET RECTILINEAR_GRID
DIMENSIONS 17 17 1
X_COORDINATES 17 float
0
0.005
0.01
0.015
0.02
0.025
0.03
0.035
0.04
0.045
0.05
0.055
0.06
0.065
0.07
0.075
0.08
Y_COORDINATES 17 float
0
0.005
0.01
0.015
0.02
0.025
0.03
0.035
0.04
0.045
0.05
0.055
0.06
0.065
0.07
0.075
0.08
Z_COORDINATES 1 float
0
CELL_DATA 256
SCALARS H float 1
LOOKUP_TABLE default
101.987
101.945
101.908
101.923
101.965
101.979
101.961
101.938
101.943
101.948
101.949
101.947
101.937
101.947
101.931
101.939
101.945
101.942
101.951
101.966
101.961
101.95
101.932
101.953
101.955
101.958
101.955
101.926
101.965
101.908
101.96
101.924
101.908
101.951
101.996
101.983
101.945
101.908
101.947
101.965
101.975
101.967
101.911
101.993
101.873
102.006
101.878
101.952
101.923
101.966
101.983
101.961
101.91
101.945
101.97
101.992
101.977
101.891
102.022
101.833
102.08
101.807
102.015
101.897
101.965
101.961
101.945
101.91
101.952
101.98
102.007
101.984
101.868
102.046
101.797
102.177
101.722
102.11
101.818
101.944
101.979
101.95
101.908
101.945
101.98
102.015
101.99
101.849
102.064
101.773
102.29
101.637
102.231
101.712
101.969
101.904
101.961
101.932
101.947
101.97
102.007
101.99
101.842
102.072
101.762
102.396
101.567
102.357
101.584
102.026
101.981
101.803
101.938
101.953
101.965
101.992
101.984
101.849
102.072
101.758
102.461
101.522
102.463
101.454
102.133
102.084
101.458
102.107
101.943
101.955
101.975
101.977
101.868
102.064
101.762
102.461
101.506
102.523
101.354
102.262
102.199
101.169
102.85
101.273
101.948
101.958
101.967
101.891
102.046
101.773
102.396
101.522
102.523
101.316
102.354
102.303
101.009
103.619
99.828
102.564
101.949
101.955
101.911
102.022
101.797
102.29
101.567
102.463
101.354
102.354
102.345
100.951
104.196
98.6726
104.802
100.298
101.947
101.926
101.993
101.833
102.177
101.637
102.357
101.454
102.262
102.303
100.951
104.396
97.9742
106.585
97.7549
103.174
101.937
101.965
101.873
102.08
101.722
102.231
101.584
102.133
102.199
101.009
104.196
97.9742
107.2
96.3073
106.443
99.2406
101.947
101.908
102.006
101.807
102.11
101.712
102.026
102.084
101.169
103.619
98.6727
106.585
96.3073
107.705
97.0561
102.655
101.931
101.96
101.878
102.015
101.818
101.969
101.981
101.458
102.85
99.828
104.802
97.7549
106.443
97.0561
104.748
100.895
101.939
101.924
101.952
101.897
101.944
101.904
101.803
102.107
101.273
102.564
100.298
103.174
99.2406
102.655
100.895
103.89
SCALARS U float 1
LOOKUP_TABLE default
-1.85022e-005
9.47975e-006
7.34715e-005
5.78781e-005
1.47378e-006
2.55354e-005
0.000154884
0.000275289
0.00030651
0.000343775
0.000349039
0.0004273
0.000358157
0.000338215
0.000197152
6.94129e-005
1.11991e-005
3.99203e-005
1.7286e-005
-1.86288e-005
-6.77769e-006
8.70509e-005
0.000178817
0.00019996
0.000279787
0.000252887
0.000464759
0.000317019
0.000487755
0.000251943
0.000238604
0.000105927
1.49847e-005
-1.43936e-005
-8.42121e-005
-7.49538e-005
5.2294e-005
0.000142485
9.78957e-005
0.0001385
6.97926e-005
0.000449968
0.00021867
0.000624326
0.000219268
0.000433446
0.000255378
-5.32703e-005
-1.15755e-005
-0.000100529
-0.000142703
-3.83427e-005
8.01832e-005
3.52218e-005
1.92938e-005
-0.000151191
0.000345454
4.67593e-005
0.000702309
8.09871e-005
0.000593455
0.000364699
1.6227e-005
0.000511348
-3.89676e-005
-0.000113044
-8.47909e-005
-1.32232e-005
-6.3098e-005
-9.41594e-005
-0.000334486
0.000205914
-0.000170197
0.000680284
-0.000185476
0.000635534
0.000370611
3.02638e-005
0.00107365
-0.000897807
-2.94251e-005
-4.68485e-005
-2.64897e-005
-0.000116962
-0.000194376
-0.000482412
4.96169e-005
-0.000375001
0.000576713
-0.000545623
0.000498401
0.000192835
-7.06134e-005
0.00168951
-0.00151701
0.00213625
-2.26246e-005
-1.26176e-005
-9.03347e-005
-0.000191325
-0.000517002
-9.13561e-005
-0.000544536
0.000421069
-0.000895799
0.000212174
-0.000183933
-0.000333664
0.00214771
-0.00245497
0.00390519
-0.00337557
-1.52699e-005
-7.32603e-005
-0.000144005
-0.000419478
-0.00013662
-0.000610763
0.000260114
-0.00112009
-9.87289e-005
-0.000645327
-0.000736309
0.00227333
-0.0036481
0.00566048
-0.00580126
0.00556925
-3.11767e-005
-0.000100677
-0.000285556
-0.000115157
-0.000540299
0.000162541
-0.00112426
-0.000280915
-0.000981277
-0.00113919
0.00207046
-0.00486929
0.00678082
-0.00891953
0.00936923
-0.00713503
-3.06814e-005
-0.000134224
-7.11516e-005
-0.000385679
0.000129982
-0.000906925
-0.000251764
-0.00101445
-0.00133632
0.00173384
-0.00569089
0.00701421
-0.0119626
0.0127355
-0.0118283
0.00865987
-6.72576e-006
-1.56545e-005
-0.00018951
0.00013179
-0.00057086
-6.86995e-005
-0.000733705
-0.00119596
0.00149647
-0.00566672
0.00661197
-0.0138258
0.0144396
-0.0168454
0.0127731
-0.00801301
-1.22918e-005
-2.2324e-005
0.000138718
-0.000233004
0.000136991
-0.000302191
-0.000770284
0.00143447
-0.00470084
0.00603449
-0.013427
0.0142691
-0.0196265
0.0153371
-0.0140002
0.00328158
4.82268e-005
0.000104014
1.16884e-005
0.000264608
7.47226e-005
-0.000253977
0.00141813
-0.00314938
0.00538854
-0.010713
0.012834
-0.0186404
0.01614
-0.0173998
0.00257368
0.00085375
1.44711e-005
0.000112954
0.000274962
0.000275572
0.000162541
0.0012599
-0.00151599
0.0044008
-0.00678967
0.0105239
-0.0141329
0.0149608
-0.0161632
0.00500736
-0.00190803
-0.0128052
8.27306e-005
0.00018768
0.000297756
0.00037464
0.000918978
-0.000191144
0.00292267
-0.00282041
0.00711188
-0.00755946
0.0115096
-0.0113658
0.00742844
-0.00312213
-0.00834675
0.0140121
5.8759e-005
0.000209803
0.000357968
0.000568719
0.000538259
0.00136555
0.00024516
0.00297255
-0.000867779
0.00537138
-0.00256714
0.00455896
-0.00272412
0.000862764
0.00573155
-0.00770996
SCALARS V float 1
LOOKUP_TABLE default
-1.85042e-005
1.11909e-005
1.49789e-005
-1.15871e-005
-3.89789e-005
-2.94369e-005
-2.26206e-005
-1.52723e-005
-3.11674e-005
-3.06799e-005
-6.72582e-006
-1.22916e-005
4.82215e-005
1.44683e-005
8.27286e-005
5.8761e-005
9.46487e-006
3.9906e-005
-1.44227e-005
-0.000100579
-0.000113053
-4.68657e-005
-1.26024e-005
-7.32508e-005
-0.000100672
-0.000134209
-1.56692e-005
-2.23359e-005
0.00010401
0.000112941
0.000187666
0.000209802
7.34422e-005
1.7275e-005
-8.42292e-005
-0.000142712
-8.47973e-005
-2.64724e-005
-9.03203e-005
-0.000144016
-0.000285542
-7.11539e-005
-0.000189534
0.000138703
1.16925e-005
0.000274948
0.000297756
0.000357973
5.78658e-005
-1.86311e-005
-7.49574e-005
-3.83475e-005
-1.32413e-005
-0.000116975
-0.00019135
-0.000419459
-0.000115173
-0.000385697
0.000131809
-0.000232997
0.000264603
0.000275581
0.000374634
0.000568732
1.5105e-006
-6.76414e-006
5.22918e-005
8.0184e-005
-6.30909e-005
-0.000194385
-0.000516993
-0.000136651
-0.000540291
0.000129992
-0.000570884
0.000137002
7.47268e-005
0.00016254
0.00091896
0.000538236
2.55578e-005
8.70722e-005
0.000142476
3.52231e-005
-9.41483e-005
-0.000482389
-9.13819e-005
-0.000610759
0.000162542
-0.000906968
-6.86661e-005
-0.000302219
-0.000253998
0.00125989
-0.000191154
0.00136552
0.000154901
0.000178798
9.7888e-005
1.92843e-005
-0.000334501
4.96341e-005
-0.000544512
0.000260134
-0.0011243
-0.00025172
-0.000733736
-0.000770259
0.00141814
-0.00151602
0.00292267
0.000245145
0.000275283
0.000199962
0.000138543
-0.000151185
0.000205941
-0.000375004
0.000421079
-0.00112008
-0.000280873
-0.00101447
-0.00119595
0.00143445
-0.00314942
0.00440085
-0.00282047
0.00297256
0.00030652
0.000279805
6.97812e-005
0.000345475
-0.000170203
0.0005767
-0.000895769
-9.87174e-005
-0.000981258
-0.0013363
0.00149647
-0.00470087
0.00538859
-0.00678976
0.00711196
-0.000867808
0.000343788
0.000252886
0.00044998
4.67778e-005
0.000680281
-0.000545569
0.000212158
-0.000645309
-0.00113918
0.00173386
-0.00566673
0.00603455
-0.0107131
0.010524
-0.00755952
0.00537141
0.000349021
0.000464769
0.000218711
0.000702305
-0.000185434
0.000498366
-0.000183918
-0.000736299
0.00207048
-0.00569086
0.00661202
-0.0134271
0.0128341
-0.0141329
0.0115097
-0.00256711
0.000427321
0.000317029
0.00062432
8.10076e-005
0.000635512
0.000192876
-0.000333666
0.00227335
-0.00486923
0.0070142
-0.0138258
0.0142692
-0.0186404
0.0149609
-0.0113658
0.00455898
0.000358168
0.000487771
0.000219266
0.000593459
0.000370629
-7.06016e-005
0.00214773
-0.00364805
0.00678077
-0.0119625
0.0144396
-0.0196265
0.01614
-0.0161632
0.00742848
-0.00272409
0.000338206
0.000251935
0.000433463
0.000364689
3.02753e-005
0.0016895
-0.00245493
0.00566042
-0.00891944
0.0127354
-0.0168453
0.0153371
-0.0173998
0.00500736
-0.00312213
0.000862773
0.000197142
0.000238614
0.000255356
1.62252e-005
0.00107364
-0.00151699
0.00390516
-0.00580117
0.00936915
-0.0118282
0.0127731
-0.0140002
0.00257368
-0.00190803
-0.00834675
0.00573156
6.9426e-005
0.000105913
-5.32673e-005
0.000511312
-0.00089781
0.00213623
-0.00337553
0.00556917
-0.00713497
0.00865983
-0.00801298
0.00328159
0.000853741
-0.0128052
0.0140121
-0.00770996
SCALARS B float 1
LOOKUP_TABLE default
1
1
1
1
1
1
1
1
1
1
1
1
1
1
1
1
1
1
1
1
1
1
1
1
1
1
1
1
1
1
1
1
1
1
1
1
1
1
1
1
1
1
1
1
1
1
1
1
1
1
1
1
1
1
1
1
1
1
1
1
1
1
1
1
1
1
1
1
1
1
1
1
1
1
1
1
1
1
1
1
1
1
1
1
1
1
1
1
1
1
1
1
1
1
1
1
1
1
1
1
1
1
1
1
1
1
1
1
1
1
1
1
1
1
1
1
1
1
1
1
1
1
1
1
1
1
1
1
1
1
1
1
1
1
1
1
1
1
1
1
1
1
1
1
1
1
1
1
1
1
1
1
1
1
1
1
1
1
1
1
1
1
1
1
1
1
1
1
1
1
1
1
1
1
1
1
1
1
1
1
1
1
1
1
1
1
1
1
1
1
1
1
1
1
1
1
1
1
1
1
1
1
1
1
1
1
1
1
1
1
1
1
1
1
1
1
1
1
1
1
1
1
1
1
1
1
1
1
1
1
1
1
1
1
1
1
1
1
1
1
1
1
1
1
1
1
1
1
1
1
1
1
1
1
1
1
