# vtk DataFile Version 2.0
HPC Tutorials: Michael Bader, Kaveh Rahnema, Oliver Meister
ASCII
DATASET RECTILINEAR_GRID
DIMENSIONS 17 17 1
X_COORDINATES 17 float
0
0.005
0.01
0.015
0.02
0.025
0.03
0.035
0.04
0.045
0.05
0.055
0.06
0.065
0.07
0.075
0.08
Y_COORDINATES 17 float
0
0.005
0.01
0.015
0.02
0.025
0.03
0.035
0.04
0.045
0.05
0.055
0.06
0.065
0.07
0.075
0.08
Z_COORDINATES 1 float
0
CELL_DATA 256
SCALARS H float 1
LOOKUP_TABLE default
101.996
101.952
101.93
101.956
101.986
101.978
101.955
101.944
101.959
101.956
101.953
101.945
101.938
101.945
101.931
101.938
101.952
101.959
101.976
101.984
101.965
101.951
101.941
101.97
101.962
101.964
101.949
101.933
101.962
101.91
101.96
101.922
101.93
101.976
102.006
101.974
101.941
101.926
101.981
101.975
101.978
101.949
101.923
101.988
101.878
102.008
101.869
101.955
101.956
101.984
101.974
101.946
101.921
101.987
101.989
101.997
101.946
101.905
102.017
101.847
102.084
101.787
102.037
101.882
101.986
101.965
101.941
101.921
101.99
101.997
102.01
101.942
101.886
102.046
101.824
102.181
101.685
102.157
101.758
101.966
101.978
101.951
101.926
101.987
101.997
102.013
101.936
101.869
102.073
101.817
102.291
101.576
102.304
101.598
102.075
101.854
101.955
101.941
101.981
101.989
102.01
101.936
101.861
102.086
101.82
102.392
101.478
102.453
101.417
102.238
101.8
101.872
101.944
101.97
101.975
101.997
101.942
101.869
102.086
101.822
102.453
101.41
102.573
101.245
102.468
101.75
101.696
102
101.959
101.962
101.978
101.946
101.886
102.073
101.82
102.453
101.384
102.638
101.121
102.715
101.715
101.569
102.505
101.379
101.956
101.964
101.949
101.905
102.046
101.817
102.392
101.41
102.638
101.075
102.882
101.702
101.546
103.008
100.122
102.536
101.953
101.949
101.923
102.017
101.824
102.291
101.478
102.573
101.121
102.882
101.699
101.564
103.353
99.1309
104.69
100.39
101.945
101.933
101.988
101.847
102.181
101.576
102.453
101.245
102.715
101.702
101.564
103.459
98.5489
106.466
97.684
103.266
101.938
101.962
101.878
102.084
101.685
102.305
101.417
102.468
101.715
101.546
103.353
98.5489
107.143
96.2749
106.996
98.7612
101.945
101.91
102.008
101.787
102.157
101.598
102.238
101.75
101.569
103.008
99.1309
106.466
96.2749
108.775
96.1312
102.942
101.931
101.96
101.869
102.037
101.758
102.075
101.8
101.696
102.505
100.122
104.69
97.684
106.996
96.1312
106.129
100.122
101.938
101.922
101.955
101.882
101.966
101.854
101.872
102
101.379
102.536
100.39
103.266
98.7612
102.942
100.122
104.026
SCALARS U float 1
LOOKUP_TABLE default
6.76007e-006
9.21347e-005
0.000106705
5.9409e-006
-5.86424e-005
2.47031e-005
0.000191376
0.000284394
0.00029078
0.000328016
0.000349824
0.000430014
0.000350744
0.000345428
0.000188119
8.02446e-005
1.03733e-005
2.42845e-005
-1.13025e-005
-2.91734e-005
1.24458e-005
0.000115656
0.000166772
0.000175888
0.000254988
0.000263479
0.000473735
0.000305291
0.000508839
0.000214
0.000281115
6.72638e-005
-1.09347e-005
-0.000102928
-0.000130526
-3.20626e-005
0.000125732
0.000134764
4.72525e-005
8.5916e-005
9.59442e-005
0.000472891
0.000203901
0.000655084
0.000141755
0.000531537
0.000150753
3.30285e-005
-3.53853e-005
-0.000155603
-0.000141665
2.3829e-005
8.72663e-005
-1.52171e-005
-5.61159e-005
-0.000114939
0.000390485
3.57892e-005
0.000730866
-5.32042e-005
0.000765455
0.00016484
0.000214157
0.000360447
-3.79529e-005
-8.56299e-005
-3.62921e-005
-2.14262e-005
-0.000121816
-0.000179552
-0.000288703
0.000273955
-0.00017118
0.000698376
-0.000388938
0.000887307
6.56259e-005
0.000391253
0.000757241
-0.000694378
-1.10023e-005
1.30286e-005
-1.52523e-005
-0.000171164
-0.000286913
-0.000439683
0.000133204
-0.000364248
0.000577849
-0.000821192
0.000825764
-0.000200638
0.000479906
0.00114435
-0.00112086
0.00193738
-1.18452e-005
5.39473e-007
-0.000118298
-0.00026421
-0.000486625
-1.15491e-005
-0.000523532
0.000411835
-0.00123006
0.000590562
-0.000631495
0.000408513
0.00134732
-0.00183071
0.00350846
-0.00334563
-1.73764e-005
-9.87703e-005
-0.000192245
-0.000400102
-7.61683e-005
-0.000589387
0.000255954
-0.00147163
0.000292156
-0.00111456
0.000164147
0.00124419
-0.00283165
0.00501837
-0.00566273
0.00598648
-4.38714e-005
-0.000129417
-0.000280897
-7.90813e-005
-0.000526686
0.000171554
-0.00144375
8.38664e-005
-0.0014478
-0.00015731
0.000899344
-0.00394263
0.0058938
-0.00860532
0.0100873
-0.00844354
-3.15787e-005
-0.000137726
-5.6165e-005
-0.000381593
0.000153139
-0.00115775
5.63998e-005
-0.00146014
-0.000380565
0.000551773
-0.00474079
0.00594045
-0.011491
0.0137536
-0.0138938
0.0114491
-1.24713e-005
-1.03775e-005
-0.000194282
0.000158944
-0.000739782
0.000170855
-0.00113499
-0.000371586
0.00043545
-0.00475897
0.00548651
-0.013255
0.0156627
-0.0197395
0.0170909
-0.0126899
-7.124e-006
-2.87466e-005
0.00015798
-0.00033298
0.000306358
-0.000628706
-0.000140192
0.00058231
-0.00388647
0.00501238
-0.0128988
0.0155759
-0.0228746
0.0206101
-0.0209719
0.010833
4.41795e-005
0.000114881
-3.73101e-005
0.000367778
-0.00015706
0.000172267
0.00080307
-0.00247657
0.004573
-0.0103259
0.0139376
-0.0216378
0.0215212
-0.026022
0.012872
-0.00713199
1.66581e-005
9.74952e-005
0.000325289
0.000141877
0.00040976
0.000866507
-0.00102269
0.00381616
-0.00648376
0.01117
-0.0163673
0.0193202
-0.0241389
0.014944
-0.0120546
-0.00191102
8.14862e-005
0.000201429
0.000245341
0.000481742
0.000717912
9.79338e-005
0.00255712
-0.00256115
0.00729596
-0.00855161
0.0138848
-0.0162729
0.0144341
-0.012026
0.000795022
0.00453662
5.78922e-005
0.000201387
0.000375078
0.000518876
0.000616714
0.00124709
0.000347631
0.00292332
-0.000927136
0.00591569
-0.00376058
0.00683322
-0.00510898
0.00406309
-0.000922307
-0.00553755
SCALARS V float 1
LOOKUP_TABLE default
6.7633e-006
1.03798e-005
-1.09314e-005
-3.53763e-005
-3.79502e-005
-1.09904e-005
-1.18419e-005
-1.73717e-005
-4.3869e-005
-3.15639e-005
-1.24781e-005
-7.11488e-006
4.41849e-005
1.66625e-005
8.14951e-005
5.78953e-005
9.2145e-005
2.42857e-005
-0.000102921
-0.000155602
-8.56413e-005
1.30323e-005
5.57004e-007
-9.87525e-005
-0.000129404
-0.00013772
-1.03756e-005
-2.87499e-005
0.000114895
9.74833e-005
0.000201423
0.000201365
0.000106713
-1.12911e-005
-0.000130516
-0.000141656
-3.6271e-005
-1.52244e-005
-0.00011828
-0.00019223
-0.000280895
-5.61453e-005
-0.000194282
0.000158007
-3.73187e-005
0.0003253
0.000245348
0.000375091
5.95164e-006
-2.91565e-005
-3.20462e-005
2.38466e-005
-2.14017e-005
-0.000171146
-0.000264182
-0.000400087
-7.90594e-005
-0.000381591
0.000158985
-0.000332981
0.000367795
0.000141917
0.000481763
0.000518899
-5.8625e-005
1.2472e-005
0.000125747
8.72758e-005
-0.000121804
-0.000286905
-0.000486605
-7.61335e-005
-0.000526685
0.000153159
-0.000739787
0.000306374
-0.000157003
0.000409758
0.000717947
0.000616741
2.47103e-005
0.000115653
0.000134764
-1.52199e-005
-0.000179558
-0.00043969
-1.15437e-005
-0.000589387
0.000171572
-0.00115775
0.000170857
-0.000628686
0.000172248
0.000866527
9.795e-005
0.00124712
0.000191385
0.000166776
4.72599e-005
-5.61107e-005
-0.000288707
0.000133196
-0.000523554
0.000255965
-0.00144375
5.63915e-005
-0.00113496
-0.000140203
0.000803065
-0.00102266
0.00255711
0.000347664
0.000284395
0.000175881
8.59079e-005
-0.000114929
0.000273951
-0.00036424
0.000411828
-0.00147165
8.38545e-005
-0.00146013
-0.000371615
0.000582298
-0.00247653
0.0038161
-0.00256112
0.00292328
0.000290759
0.000254976
9.59323e-005
0.000390465
-0.00017116
0.00057783
-0.00123007
0.000292146
-0.00144781
-0.000380579
0.000435451
-0.00388647
0.00457296
-0.0064837
0.0072959
-0.000927133
0.000328016
0.000263482
0.000472887
3.57839e-005
0.000698354
-0.000821191
0.000590572
-0.00111458
-0.00015731
0.000551771
-0.00475897
0.00501237
-0.0103258
0.01117
-0.00855161
0.00591566
0.00034982
0.000473743
0.000203919
0.000730863
-0.000388934
0.00082579
-0.000631516
0.000164183
0.000899345
-0.00474078
0.00548652
-0.0128988
0.0139376
-0.0163673
0.0138848
-0.00376058
0.000430025
0.00030529
0.000655077
-5.31828e-005
0.000887315
-0.000200665
0.000408539
0.00124417
-0.00394262
0.00594044
-0.013255
0.0155759
-0.0216378
0.0193202
-0.0162729
0.00683323
0.000350757
0.000508845
0.000141775
0.000765471
6.56055e-005
0.000479917
0.00134731
-0.00283168
0.0058938
-0.011491
0.0156627
-0.0228746
0.0215212
-0.0241389
0.0144342
-0.005109
0.000345427
0.000214017
0.000531552
0.000164837
0.000391298
0.00114436
-0.00183072
0.00501842
-0.00860537
0.0137536
-0.0197394
0.0206101
-0.026022
0.014944
-0.012026
0.0040631
0.000188125
0.000281117
0.000150764
0.000214175
0.000757238
-0.00112088
0.00350849
-0.0056628
0.0100873
-0.0138938
0.0170909
-0.0209718
0.012872
-0.0120546
0.00079505
-0.000922286
8.02396e-005
6.72757e-005
3.30269e-005
0.000360449
-0.000694385
0.00193741
-0.0033457
0.00598653
-0.00844357
0.0114491
-0.0126899
0.0108329
-0.00713197
-0.001911
0.00453662
-0.00553754
SCALARS B float 1
LOOKUP_TABLE default
1
1
1
1
1
1
1
1
1
1
1
1
1
1
1
1
1
1
1
1
1
1
1
1
1
1
1
1
1
1
1
1
1
1
1
1
1
1
1
1
1
1
1
1
1
1
1
1
1
1
1
1
1
1
1
1
1
1
1
1
1
1
1
1
1
1
1
1
1
1
1
1
1
1
1
1
1
1
1
1
1
1
1
1
1
1
1
1
1
1
1
1
1
1
1
1
1
1
1
1
1
1
1
1
1
1
1
1
1
1
1
1
1
1
1
1
1
1
1
1
1
1
1
1
1
1
1
1
1
1
1
1
1
1
1
1
1
1
1
1
1
1
1
1
1
1
1
1
1
1
1
1
1
1
1
1
1
1
1
1
1
1
1
1
1
1
1
1
1
1
1
1
1
1
1
1
1
1
1
1
1
1
1
1
1
1
1
1
1
1
1
1
1
1
1
1
1
1
1
1
1
1
1
1
1
1
1
1
1
1
1
1
1
1
1
1
1
1
1
1
1
1
1
1
1
1
1
1
1
1
1
1
1
1
1
1
1
1
1
1
1
1
1
1
1
1
1
1
1
1
1
1
1
1
1
1
