# vtk DataFile Version 2.0
HPC Tutorials: Michael Bader, Kaveh Rahnema, Oliver Meister
ASCII
DATASET RECTILINEAR_GRID
DIMENSIONS 17 17 1
X_COORDINATES 17 float
0
0.005
0.01
0.015
0.02
0.025
0.03
0.035
0.04
0.045
0.05
0.055
0.06
0.065
0.07
0.075
0.08
Y_COORDINATES 17 float
0
0.005
0.01
0.015
0.02
0.025
0.03
0.035
0.04
0.045
0.05
0.055
0.06
0.065
0.07
0.075
0.08
Z_COORDINATES 1 float
0
CELL_DATA 256
SCALARS H float 1
LOOKUP_TABLE default
101.934
101.955
101.994
102
101.965
101.933
101.939
101.966
101.968
101.964
101.943
101.948
101.938
101.938
101.938
101.934
101.955
101.971
101.975
101.961
101.948
101.952
101.976
101.964
101.971
101.932
101.962
101.935
101.945
101.946
101.92
101.941
101.994
101.975
101.935
101.92
101.949
102.004
101.985
101.983
101.91
101.97
101.931
101.958
101.96
101.894
101.982
101.905
102
101.961
101.92
101.928
101.996
101.995
102.003
101.897
101.977
101.928
101.981
101.981
101.86
102.049
101.805
101.976
101.965
101.948
101.949
101.996
101.986
102
101.882
101.983
101.934
102.016
102.007
101.821
102.132
101.669
102.15
101.814
101.933
101.952
102.004
101.995
102
101.87
101.98
101.939
102.055
102.035
101.782
102.218
101.519
102.391
101.525
102.053
101.939
101.976
101.985
102.003
101.882
101.98
101.939
102.078
102.057
101.748
102.291
101.382
102.689
101.196
102.432
101.671
101.966
101.964
101.983
101.897
101.983
101.939
102.079
102.064
101.727
102.338
101.28
103.005
100.878
102.877
101.184
102.041
101.968
101.971
101.91
101.977
101.934
102.055
102.057
101.727
102.354
101.227
103.259
100.631
103.347
100.648
102.365
101.675
101.964
101.932
101.97
101.928
102.016
102.035
101.748
102.338
101.227
103.359
100.497
103.719
100.143
102.742
101.601
101.722
101.943
101.962
101.931
101.981
102.007
101.782
102.291
101.28
103.259
100.497
103.861
99.8297
103.118
101.481
100.964
102.401
101.948
101.935
101.958
101.981
101.821
102.218
101.382
103.005
100.631
103.719
99.8297
103.281
101.439
100.541
104.001
100.363
101.938
101.945
101.96
101.86
102.132
101.519
102.689
100.878
103.347
100.143
103.118
101.439
100.507
105.29
97.3477
103.678
101.938
101.945
101.894
102.049
101.669
102.391
101.196
102.877
100.648
102.742
101.481
100.541
105.29
96.4261
107.6
99.4155
101.938
101.92
101.982
101.805
102.15
101.525
102.432
101.184
102.365
101.601
100.964
104.001
97.3477
107.6
96.839
104.191
101.934
101.941
101.905
101.976
101.814
102.053
101.671
102.041
101.675
101.722
102.401
100.363
103.678
99.4155
104.191
100.328
SCALARS U float 1
LOOKUP_TABLE default
4.0231e-005
9.42652e-005
1.3832e-005
-4.76632e-005
1.70654e-005
0.000142891
0.000190775
0.00020792
0.00024729
0.000341435
0.000409936
0.000392998
0.000407574
0.00027599
0.000248899
4.31261e-005
-9.3912e-006
-4.64773e-005
-4.09399e-005
1.67275e-005
9.58354e-005
9.40492e-005
0.000116942
0.000136534
0.000269286
0.00036246
0.000356997
0.00048662
0.00026024
0.000480313
6.58551e-005
0.000191428
-4.71581e-005
-0.000117542
-3.9745e-005
8.02466e-005
4.499e-005
7.25414e-006
-2.65011e-005
0.000165521
0.000286917
0.000277862
0.000491479
0.000154717
0.000724093
-1.90135e-005
0.000567542
-0.000143518
-3.72451e-005
-5.92386e-005
1.645e-005
-7.86572e-006
-6.77828e-005
-0.000174527
2.20066e-005
0.000171246
0.00016524
0.000417927
-6.62436e-005
0.000904049
-0.000220167
0.00105506
-0.000290528
0.000399813
-3.79808e-006
1.99657e-005
-3.56456e-005
-0.000122483
-0.000267316
-0.000105836
3.12447e-005
1.33942e-005
0.000266724
-0.000385161
0.00095621
-0.000546697
0.00154572
-0.000612209
0.000964316
-0.000112861
5.99304e-007
-2.05562e-005
-0.000123406
-0.000290696
-0.000188705
-8.33399e-005
-0.000132087
7.14424e-005
-0.000752744
0.00084972
-0.000977904
0.00191145
-0.00112817
0.00157847
-0.000204362
-0.000151087
-1.48873e-005
-0.000101477
-0.00024447
-0.000217884
-0.000159339
-0.000228816
-8.35618e-005
-0.00104897
0.000620167
-0.00144937
0.00205467
-0.00183178
0.00199108
-0.000544198
-3.29134e-005
0.00160593
-5.03881e-005
-0.000152789
-0.000187445
-0.000181033
-0.000270139
-0.000159351
-0.00115595
0.000383556
-0.00182874
0.00196034
-0.00259635
0.00202914
-0.00122806
-6.8182e-005
0.00273672
-0.00370329
-3.09329e-005
-0.000113046
-0.000134723
-0.000235807
-0.000150803
-0.00104865
0.000238078
-0.00196731
0.00171796
-0.00315771
0.0017354
-0.00218934
-0.000454491
0.0036059
-0.00599773
0.00772301
-4.12985e-005
-5.97155e-005
-0.000146207
-7.44542e-005
-0.000771399
0.000214026
-0.0017949
0.00145345
-0.00324762
0.00137256
-0.00300603
-0.00108497
0.00379162
-0.00884173
0.012092
-0.0131094
1.74888e-007
-5.84803e-005
4.12903e-006
-0.000435338
0.000269994
-0.00135474
0.00124854
-0.00278819
0.00120513
-0.00314903
-0.00154508
0.00347662
-0.0112818
0.0152303
-0.0209669
0.0195499
-5.23221e-006
4.38029e-005
-0.000156003
0.000312698
-0.000800638
0.00110171
-0.00195284
0.00126915
-0.00247311
-0.00143558
0.00313702
-0.0119106
0.0162562
-0.0283924
0.0284633
-0.0249472
2.57551e-005
1.37388e-005
0.000287048
-0.000310297
0.000947772
-0.00105161
0.00138672
-0.00137023
-0.000684982
0.00295035
-0.0101435
0.0153377
-0.0303936
0.0324745
-0.0360452
0.0297052
4.90125e-005
0.000191967
1.15235e-005
0.000736623
-0.000338299
0.00135999
-0.000405099
0.000340726
0.00264598
-0.00638573
0.0126025
-0.0243213
0.0296476
-0.0405595
0.0360055
-0.0269391
5.10322e-005
0.000131396
0.000475867
0.000103615
0.00109792
0.000179157
0.00107108
0.00188537
-0.00200209
0.00815633
-0.0127868
0.0208052
-0.0279479
0.0297132
-0.0316078
0.0201673
7.22377e-005
0.000231584
0.000290937
0.000657054
0.000527138
0.00107859
0.00114317
0.000896921
0.00325397
-0.00151187
0.00765161
-0.00615539
0.0133241
-0.0127421
0.00768051
-0.0105136
SCALARS V float 1
LOOKUP_TABLE default
4.0244e-005
-9.37797e-006
-4.71496e-005
-3.72395e-005
-3.785e-006
6.01738e-007
-1.48809e-005
-5.03839e-005
-3.09322e-005
-4.12982e-005
1.72287e-007
-5.2292e-006
2.57469e-005
4.90102e-005
5.10189e-005
7.22334e-005
9.42854e-005
-4.64483e-005
-0.000117529
-5.92248e-005
1.99664e-005
-2.05499e-005
-0.000101469
-0.000152789
-0.00011304
-5.97109e-005
-5.84732e-005
4.38113e-005
1.37392e-005
0.000191956
0.000131393
0.000231571
1.38569e-005
-4.09147e-005
-3.97171e-005
1.64875e-005
-3.56172e-005
-0.000123382
-0.000244457
-0.000187457
-0.000134709
-0.000146179
4.13479e-006
-0.000156001
0.000287054
1.15555e-005
0.000475888
0.000290959
-4.76553e-005
1.67505e-005
8.02638e-005
-7.85523e-006
-0.000122464
-0.000290666
-0.000217897
-0.000181014
-0.000235831
-7.44585e-005
-0.000435343
0.000312687
-0.000310292
0.000736625
0.000103654
0.000657088
1.70723e-005
9.58377e-005
4.50081e-005
-6.77685e-005
-0.000267304
-0.000188718
-0.000159316
-0.000270148
-0.000150796
-0.000771434
0.000269983
-0.000800621
0.00094776
-0.000338287
0.00109793
0.000527147
0.00014288
9.40466e-005
7.26298e-006
-0.00017453
-0.000105813
-8.33174e-005
-0.00022882
-0.000159327
-0.00104865
0.000214032
-0.00135472
0.0011017
-0.00105161
0.00135998
0.00017915
0.00107862
0.000190789
0.000116951
-2.6495e-005
2.20634e-005
3.12605e-005
-0.000132053
-8.3515e-005
-0.00115593
0.000238098
-0.00179487
0.00124855
-0.00195283
0.00138674
-0.000405114
0.00107112
0.00114316
0.000207926
0.000136542
0.000165545
0.000171242
1.34329e-005
7.14502e-005
-0.00104893
0.000383593
-0.0019673
0.00145346
-0.00278818
0.00126918
-0.00137024
0.000340791
0.00188533
0.000896958
0.000247297
0.000269293
0.000286894
0.000165251
0.000266726
-0.000752717
0.000620176
-0.0018287
0.001718
-0.00324759
0.00120515
-0.00247309
-0.000684909
0.00264594
-0.00200201
0.00325396
0.000341448
0.000362466
0.000277871
0.000417915
-0.000385148
0.000849742
-0.00144936
0.00196037
-0.00315769
0.00137259
-0.00314899
-0.00143555
0.00295033
-0.00638565
0.00815627
-0.00151183
0.000409951
0.00035701
0.000491502
-6.6219e-005
0.00095622
-0.00097791
0.00205469
-0.00259635
0.00173543
-0.00300601
-0.00154506
0.00313702
-0.0101434
0.0126025
-0.0127868
0.0076516
0.000393006
0.000486622
0.000154719
0.00090406
-0.000546712
0.00191146
-0.00183176
0.00202916
-0.00218933
-0.00108497
0.00347663
-0.0119106
0.0153376
-0.0243212
0.0208052
-0.00615536
0.00040757
0.000260261
0.000724105
-0.000220173
0.00154574
-0.00112817
0.00199107
-0.00122804
-0.000454513
0.00379163
-0.0112818
0.0162563
-0.0303936
0.0296476
-0.0279479
0.0133242
0.000276009
0.000480333
-1.90047e-005
0.00105508
-0.000612215
0.00157846
-0.000544173
-6.82217e-005
0.00360595
-0.00884177
0.0152303
-0.0283924
0.0324745
-0.0405596
0.0297133
-0.0127421
0.000248914
6.58635e-005
0.000567564
-0.000290541
0.000964301
-0.000204359
-3.29649e-005
0.00273677
-0.00599781
0.0120921
-0.0209669
0.0284633
-0.0360452
0.0360055
-0.0316078
0.00768051
4.31226e-005
0.000191442
-0.00014351
0.000399831
-0.000112843
-0.000151107
0.00160597
-0.00370334
0.00772308
-0.0131095
0.0195499
-0.0249471
0.0297052
-0.0269391
0.0201673
-0.0105136
SCALARS B float 1
LOOKUP_TABLE default
1
1
1
1
1
1
1
1
1
1
1
1
1
1
1
1
1
1
1
1
1
1
1
1
1
1
1
1
1
1
1
1
1
1
1
1
1
1
1
1
1
1
1
1
1
1
1
1
1
1
1
1
1
1
1
1
1
1
1
1
1
1
1
1
1
1
1
1
1
1
1
1
1
1
1
1
1
1
1
1
1
1
1
1
1
1
1
1
1
1
1
1
1
1
1
1
1
1
1
1
1
1
1
1
1
1
1
1
1
1
1
1
1
1
1
1
1
1
1
1
1
1
1
1
1
1
1
1
1
1
1
1
1
1
1
1
1
1
1
1
1
1
1
1
1
1
1
1
1
1
1
1
1
1
1
1
1
1
1
1
1
1
1
1
1
1
1
1
1
1
1
1
1
1
1
1
1
1
1
1
1
1
1
1
1
1
1
1
1
1
1
1
1
1
1
1
1
1
1
1
1
1
1
1
1
1
1
1
1
1
1
1
1
1
1
1
1
1
1
1
1
1
1
1
1
1
1
1
1
1
1
1
1
1
1
1
1
1
1
1
1
1
1
1
1
1
1
1
1
1
1
1
1
1
1
1
