# vtk DataFile Version 2.0
HPC Tutorials: Michael Bader, Kaveh Rahnema, Oliver Meister
ASCII
DATASET RECTILINEAR_GRID
DIMENSIONS 17 17 1
X_COORDINATES 17 float
0
0.005
0.01
0.015
0.02
0.025
0.03
0.035
0.04
0.045
0.05
0.055
0.06
0.065
0.07
0.075
0.08
Y_COORDINATES 17 float
0
0.005
0.01
0.015
0.02
0.025
0.03
0.035
0.04
0.045
0.05
0.055
0.06
0.065
0.07
0.075
0.08
Z_COORDINATES 1 float
0
CELL_DATA 256
SCALARS H float 1
LOOKUP_TABLE default
101.973
101.977
101.954
101.934
101.95
101.979
101.986
101.961
101.944
101.947
101.948
101.954
101.936
101.946
101.931
101.937
101.977
101.96
101.945
101.956
101.973
101.981
101.959
101.947
101.955
101.947
101.972
101.922
101.968
101.912
101.951
101.928
101.954
101.945
101.97
101.995
101.994
101.947
101.927
101.954
101.957
102.005
101.908
101.999
101.879
101.98
101.908
101.935
101.934
101.956
101.995
102.012
101.96
101.919
101.942
101.957
102.041
101.898
102.032
101.835
102.027
101.879
101.937
101.929
101.95
101.973
101.994
101.96
101.927
101.948
101.964
102.07
101.888
102.06
101.786
102.091
101.848
101.951
101.966
101.879
101.979
101.981
101.947
101.919
101.948
101.973
102.095
101.883
102.074
101.734
102.164
101.828
101.991
102.014
101.717
102
101.986
101.959
101.927
101.942
101.964
102.095
101.885
102.083
101.696
102.231
101.825
102.055
102.06
101.535
102.332
101.653
101.961
101.947
101.954
101.957
102.07
101.883
102.083
101.683
102.273
101.834
102.129
102.095
101.368
102.724
101.012
102.235
101.944
101.955
101.957
102.041
101.888
102.074
101.696
102.273
101.839
102.181
102.115
101.237
103.115
100.416
103.293
101.165
101.947
101.947
102.005
101.898
102.06
101.734
102.231
101.834
102.181
102.121
101.164
103.422
99.9682
104.399
99.6894
102.465
101.947
101.972
101.908
102.032
101.786
102.164
101.825
102.129
102.115
101.164
103.542
99.7376
105.323
98.4643
104.209
100.474
101.954
101.922
101.999
101.835
102.091
101.828
102.055
102.095
101.237
103.422
99.7376
105.703
97.7254
105.487
98.6221
102.687
101.935
101.968
101.879
102.027
101.848
101.991
102.06
101.368
103.115
99.9682
105.323
97.7254
105.931
97.2276
103.95
101.371
101.946
101.912
101.98
101.879
101.951
102.014
101.535
102.724
100.416
104.399
98.4642
105.487
97.2276
103.959
100.639
102.192
101.931
101.951
101.908
101.937
101.966
101.717
102.332
101.012
103.293
99.6894
104.209
98.6221
103.95
100.639
100.907
102.989
101.937
101.928
101.935
101.929
101.879
102
101.653
102.235
101.165
102.465
100.474
102.687
101.371
102.192
102.989
101.805
SCALARS U float 1
LOOKUP_TABLE default
-4.18298e-005
-0.000135507
-5.26706e-005
9.90311e-005
0.000144742
9.17466e-005
8.24204e-005
0.000192149
0.000290678
0.000373702
0.000367589
0.000413143
0.000371595
0.000311416
0.000218966
4.68001e-005
-2.96144e-006
1.49692e-005
3.62661e-005
2.37309e-005
-2.63447e-006
1.8891e-005
0.000143642
0.000206144
0.000325735
0.000263361
0.000421129
0.000353262
0.000407174
0.000351448
0.000139199
0.00018238
3.22924e-005
0.000120478
5.15913e-005
-9.23561e-005
-0.000127705
4.1587e-005
0.000132035
0.000272759
0.000103852
0.000362585
0.000254249
0.000474725
0.000433036
0.000197886
0.000477153
-0.000205295
2.59727e-005
5.51061e-005
-5.46472e-005
-0.000164275
-6.56024e-005
1.57815e-005
0.000186867
-7.98789e-005
0.000227206
6.55579e-005
0.000482999
0.000446115
0.000185599
0.000806057
-0.000353917
0.000730293
-2.15191e-005
-9.76411e-005
-0.000166725
-9.38173e-005
-5.679e-005
8.58706e-005
-0.000263104
4.03531e-005
-0.000190163
0.000402389
0.000359413
6.17031e-005
0.00106933
-0.000671218
0.00155049
-0.00107757
-5.28758e-005
-0.000174754
-0.000138452
-0.000102205
1.58864e-005
-0.000381062
-0.000141471
-0.000451578
0.000245922
0.000173502
-0.000200868
0.00113806
-0.00118046
0.00251188
-0.00190791
0.00203588
-5.12586e-005
-0.000113842
-0.000129704
-4.62692e-005
-0.000408245
-0.000250084
-0.00063929
5.49198e-005
-5.89335e-005
-0.00054937
0.000954603
-0.00188955
0.0033327
-0.00308609
0.0038205
-0.0025186
-2.96077e-005
-7.2978e-005
-6.44095e-005
-0.000354618
-0.000263527
-0.000685575
-0.000105814
-0.000263499
-0.000860033
0.00061057
-0.00268641
0.00375293
-0.00447375
0.0056703
-0.00444397
0.0032175
-1.28393e-005
-4.00777e-005
-0.00023048
-0.000199944
-0.00058425
-0.000175332
-0.000359633
-0.000998895
0.000300418
-0.00329704
0.00370086
-0.0058215
0.00694998
-0.00704798
0.00537272
-0.00253605
-2.88641e-005
-9.61764e-005
-0.000104057
-0.00038616
-0.000146784
-0.000315525
-0.000900441
0.000192607
-0.00341919
0.00334261
-0.00669607
0.00735334
-0.00965253
0.00706628
-0.00466717
0.000336675
3.08033e-006
-3.37549e-005
-0.000168419
-5.56549e-005
-0.000168503
-0.000621215
0.000300044
-0.0029451
0.00293744
-0.00666678
0.00703628
-0.0112777
0.00757327
-0.00713936
0.000173962
0.0040332
-2.21588e-005
-1.173e-005
3.37501e-005
7.73565e-006
-0.000283813
0.000488121
-0.00206215
0.00261879
-0.00563087
0.00639275
-0.0109314
0.00714373
-0.00894772
-0.000172772
0.00461974
-0.0137489
4.7962e-005
6.12909e-005
0.000126282
-6.86454e-006
0.000602351
-0.00110393
0.00231369
-0.00393659
0.00561793
-0.00861997
0.00673942
-0.00868834
-0.000338723
0.00443298
-0.0193662
0.0202033
1.54011e-005
0.000145662
0.000138608
0.000563494
-0.000330265
0.00187141
-0.00213034
0.0045931
-0.00543335
0.00639053
-0.00631231
0.00126203
0.00356421
-0.0183004
0.0227422
-0.0327089
7.71921e-005
0.000150819
0.000404651
0.000148203
0.00125763
-0.000605594
0.0031478
-0.00232725
0.00516743
-0.00337889
0.00363972
0.00205931
-0.00981676
0.0176722
-0.0276271
0.0299271
6.07818e-005
0.000222839
0.000311635
0.000655581
0.000399724
0.00147872
0.000238555
0.00268133
-0.000100115
0.00318727
0.00121396
-0.000103949
0.00527614
-0.00732175
0.0163317
-0.00988527
SCALARS V float 1
LOOKUP_TABLE default
-4.18316e-005
-2.95839e-006
3.22915e-005
2.59663e-005
-2.15201e-005
-5.28742e-005
-5.12756e-005
-2.96086e-005
-1.28367e-005
-2.88584e-005
3.08142e-006
-2.21616e-005
4.79599e-005
1.54015e-005
7.71935e-005
6.07783e-005
-0.000135512
1.49629e-005
0.000120468
5.50823e-005
-9.76399e-005
-0.000174764
-0.000113832
-7.29762e-005
-4.00556e-005
-9.61667e-005
-3.37617e-005
-1.1708e-005
6.12769e-005
0.000145665
0.000150819
0.000222841
-5.2682e-005
3.62578e-005
5.15844e-005
-5.46425e-005
-0.000166743
-0.000138457
-0.000129701
-6.43969e-005
-0.0002305
-0.000104059
-0.00016842
3.37363e-005
0.000126302
0.000138622
0.000404651
0.000311621
9.90282e-005
2.37401e-005
-9.23598e-005
-0.000164276
-9.38242e-005
-0.0001022
-4.62779e-005
-0.000354635
-0.000199923
-0.000386163
-5.5654e-005
7.73891e-006
-6.85651e-006
0.000563512
0.000148186
0.000655605
0.000144742
-2.65309e-006
-0.000127709
-6.56067e-005
-5.6794e-005
1.5876e-005
-0.000408239
-0.00026355
-0.000584258
-0.00014677
-0.000168488
-0.00028381
0.000602386
-0.00033027
0.00125767
0.000399714
9.17399e-005
1.88845e-005
4.15716e-005
1.57519e-005
8.58528e-005
-0.00038108
-0.0002501
-0.000685576
-0.000175345
-0.000315539
-0.000621219
0.000488175
-0.00110394
0.00187146
-0.000605606
0.00147873
8.24139e-005
0.000143629
0.000132018
0.000186868
-0.000263104
-0.000141478
-0.000639304
-0.000105817
-0.000359642
-0.000900433
0.000300076
-0.00206216
0.00231374
-0.00213033
0.0031478
0.000238581
0.000192153
0.000206147
0.000272751
-7.98772e-005
4.03736e-005
-0.000451574
5.49189e-005
-0.0002635
-0.000998893
0.000192615
-0.00294512
0.00261883
-0.00393658
0.00459309
-0.00232718
0.00268132
0.000290697
0.000325738
0.000103885
0.000227208
-0.00019018
0.000245922
-5.89425e-005
-0.000860031
0.000300412
-0.0034192
0.00293746
-0.00563087
0.00561791
-0.0054333
0.00516736
-0.000100079
0.000373714
0.000263382
0.000362598
6.55951e-005
0.000402398
0.000173507
-0.000549371
0.000610555
-0.00329705
0.00334259
-0.00666679
0.00639273
-0.00861991
0.00639044
-0.0033788
0.00318723
0.000367601
0.000421158
0.000254285
0.00048302
0.000359447
-0.000200854
0.000954584
-0.0026864
0.00370083
-0.00669607
0.00703627
-0.0109313
0.00673934
-0.00631221
0.00363961
0.001214
0.000413176
0.00035329
0.000474753
0.000446148
6.17374e-005
0.00113805
-0.00188951
0.00375291
-0.00582149
0.00735335
-0.0112777
0.00714371
-0.00868827
0.00126195
0.0020594
-0.00010399
0.000371612
0.000407208
0.00043304
0.000185591
0.0010693
-0.00118043
0.00333267
-0.00447374
0.00695
-0.00965258
0.00757332
-0.00894774
-0.000338762
0.00356427
-0.00981683
0.00527614
0.000311427
0.000351441
0.000197877
0.000806043
-0.000671187
0.00251185
-0.00308609
0.00567033
-0.00704804
0.00706637
-0.00713943
-0.00017273
0.00443298
-0.0183004
0.0176722
-0.00732177
0.000218945
0.000139187
0.000477155
-0.000353878
0.00155048
-0.00190789
0.00382055
-0.00444402
0.00537281
-0.00466727
0.000174039
0.00461968
-0.0193661
0.0227422
-0.0276271
0.0163317
4.67978e-005
0.000182373
-0.000205288
0.00073027
-0.00107756
0.00203591
-0.00251864
0.00321757
-0.00253614
0.000336758
0.00403312
-0.0137488
0.0202033
-0.0327089
0.0299271
-0.00988527
SCALARS B float 1
LOOKUP_TABLE default
1
1
1
1
1
1
1
1
1
1
1
1
1
1
1
1
1
1
1
1
1
1
1
1
1
1
1
1
1
1
1
1
1
1
1
1
1
1
1
1
1
1
1
1
1
1
1
1
1
1
1
1
1
1
1
1
1
1
1
1
1
1
1
1
1
1
1
1
1
1
1
1
1
1
1
1
1
1
1
1
1
1
1
1
1
1
1
1
1
1
1
1
1
1
1
1
1
1
1
1
1
1
1
1
1
1
1
1
1
1
1
1
1
1
1
1
1
1
1
1
1
1
1
1
1
1
1
1
1
1
1
1
1
1
1
1
1
1
1
1
1
1
1
1
1
1
1
1
1
1
1
1
1
1
1
1
1
1
1
1
1
1
1
1
1
1
1
1
1
1
1
1
1
1
1
1
1
1
1
1
1
1
1
1
1
1
1
1
1
1
1
1
1
1
1
1
1
1
1
1
1
1
1
1
1
1
1
1
1
1
1
1
1
1
1
1
1
1
1
1
1
1
1
1
1
1
1
1
1
1
1
1
1
1
1
1
1
1
1
1
1
1
1
1
1
1
1
1
1
1
1
1
1
1
1
1
