# vtk DataFile Version 2.0
HPC Tutorials: Michael Bader, Kaveh Rahnema, Oliver Meister
ASCII
DATASET RECTILINEAR_GRID
DIMENSIONS 17 17 1
X_COORDINATES 17 float
0
0.005
0.01
0.015
0.02
0.025
0.03
0.035
0.04
0.045
0.05
0.055
0.06
0.065
0.07
0.075
0.08
Y_COORDINATES 17 float
0
0.005
0.01
0.015
0.02
0.025
0.03
0.035
0.04
0.045
0.05
0.055
0.06
0.065
0.07
0.075
0.08
Z_COORDINATES 1 float
0
CELL_DATA 256
SCALARS H float 1
LOOKUP_TABLE default
101.947
101.951
101.979
101.996
101.973
101.939
101.938
101.956
101.973
101.956
101.953
101.939
101.942
101.94
101.933
101.937
101.951
101.968
101.98
101.969
101.948
101.952
101.959
101.982
101.95
101.964
101.933
101.951
101.946
101.923
101.954
101.924
101.979
101.98
101.951
101.924
101.946
101.975
102.014
101.952
101.965
101.916
101.962
101.958
101.91
101.99
101.873
101.956
101.996
101.969
101.924
101.928
101.962
102.03
101.964
101.975
101.897
101.973
101.976
101.902
102.043
101.793
102.055
101.867
101.973
101.948
101.946
101.962
102.025
101.957
101.976
101.883
101.988
102.004
101.903
102.102
101.692
102.198
101.683
102.007
101.939
101.952
101.975
102.03
101.957
101.969
101.867
101.999
102.035
101.916
102.16
101.581
102.375
101.457
102.269
101.763
101.938
101.959
102.014
101.964
101.976
101.867
102
102.053
101.93
102.205
101.477
102.562
101.227
102.61
101.42
102.038
101.956
101.982
101.952
101.975
101.883
101.999
102.053
101.936
102.228
101.4
102.723
101.035
103.017
101.037
102.318
101.705
101.973
101.95
101.965
101.897
101.988
102.035
101.93
102.228
101.371
102.818
100.913
103.412
100.665
102.642
101.508
101.792
101.956
101.964
101.916
101.973
102.004
101.916
102.205
101.4
102.818
100.871
103.664
100.389
102.986
101.268
101.437
102.16
101.952
101.933
101.962
101.976
101.903
102.16
101.477
102.723
100.913
103.664
100.285
103.207
101.04
101.227
103.261
100.969
101.939
101.951
101.958
101.902
102.102
101.581
102.562
101.035
103.412
100.389
103.207
100.948
101.206
104.218
98.612
103.138
101.942
101.946
101.91
102.043
101.692
102.375
101.227
103.017
100.665
102.986
101.04
101.206
104.684
97.4996
106.603
99.1037
101.94
101.923
101.99
101.793
102.198
101.457
102.61
101.037
102.642
101.268
101.227
104.218
97.4996
108.391
95.8084
104.138
101.933
101.954
101.873
102.055
101.683
102.269
101.42
102.319
101.508
101.437
103.261
98.612
106.603
95.8084
107.54
99.6148
101.937
101.924
101.956
101.867
102.007
101.763
102.038
101.705
101.792
102.16
100.969
103.138
99.1037
104.138
99.6148
102.671
SCALARS U float 1
LOOKUP_TABLE default
4.18207e-005
0.000126854
5.32532e-005
-5.33147e-005
-2.13815e-005
0.000109254
0.000212866
0.000225993
0.000259121
0.000332061
0.000382195
0.000428791
0.000344093
0.000351317
0.000171419
0.000101046
-4.13983e-006
-3.22299e-005
-4.4961e-005
8.41573e-006
7.32576e-005
0.00012964
0.000106033
0.00016131
0.000245534
0.000324091
0.000453399
0.00030766
0.000519942
0.000165745
0.000357843
-1.96704e-005
-4.7264e-005
-0.000148513
-7.35174e-005
5.67554e-005
0.000120727
7.02969e-006
1.50179e-005
9.94112e-005
0.000234477
0.000430431
0.000198833
0.000648479
6.13867e-005
0.000697652
-6.23474e-005
0.000252383
-4.50068e-005
-0.000101057
-3.34712e-005
5.17584e-005
-5.96509e-005
-9.90063e-005
-6.37346e-005
0.000104042
0.000359315
2.21604e-005
0.000679309
-0.000170834
0.00105455
-0.000231803
0.000689371
-8.02599e-005
-1.31028e-005
-5.41129e-007
4.31745e-006
-0.000131107
-0.000196193
-0.000198941
-3.57501e-005
0.000242551
-0.000202171
0.000589796
-0.000535267
0.00132931
-0.000535836
0.00121734
-0.000138964
5.3507e-005
9.50421e-006
2.11381e-005
-0.00011231
-0.000232192
-0.00028802
-0.000158058
0.000110741
-0.000426795
0.000394674
-0.000990045
0.00144123
-0.000977447
0.00167766
-0.000375788
0.000298721
0.000851084
-1.65146e-005
-7.56271e-005
-0.000190371
-0.000286377
-0.00023152
-4.97922e-006
-0.000579207
0.000176135
-0.00142668
0.00135568
-0.00151323
0.00192227
-0.000870093
0.000433533
0.00151134
-0.00206696
-2.93964e-005
-0.000138285
-0.000221057
-0.000232425
-7.57874e-005
-0.000618387
2.85471e-005
-0.00168269
0.00113092
-0.00202221
0.00188779
-0.00162164
0.000249125
0.00199445
-0.00330126
0.00489274
-5.46385e-005
-0.000125927
-0.000177444
-8.51559e-005
-0.000537117
-1.05229e-005
-0.00165367
0.000888027
-0.00232085
0.00165311
-0.00240522
-0.000276111
0.00198525
-0.00492012
0.00811995
-0.00857429
-1.93265e-005
-9.32818e-005
-5.08481e-005
-0.000367728
4.24182e-005
-0.00134976
0.000721864
-0.00226697
0.00139037
-0.00282748
-0.00085962
0.00149491
-0.00665759
0.0108197
-0.0140202
0.0138606
-2.25556e-005
-7.44032e-006
-0.000181091
0.000118137
-0.000886643
0.000653971
-0.00185075
0.00122733
-0.00261535
-0.00107657
0.000992568
-0.00778813
0.0120637
-0.0199432
0.0209257
-0.0192733
8.60781e-006
-3.46476e-005
0.000151376
-0.00043022
0.000622023
-0.00121341
0.00116635
-0.00185704
-0.000731134
0.000919617
-0.00763781
0.0119548
-0.0232954
0.0254253
-0.0298155
0.0240136
2.81747e-005
0.000124495
-9.36789e-005
0.000549161
-0.000575537
0.00111445
-0.000930097
-2.65738e-005
0.00121416
-0.00601911
0.0107532
-0.0219229
0.0259653
-0.0374572
0.0323141
-0.0238738
3.20392e-005
7.41816e-005
0.000411188
-0.000101725
0.000978062
-0.00020312
0.000649404
0.00139218
-0.0033644
0.00859251
-0.0160616
0.0223848
-0.0346662
0.0331995
-0.0331416
0.0223855
7.25417e-005
0.000229495
0.000150969
0.000726918
0.000211333
0.000986474
0.00115584
-0.000686209
0.00549023
-0.00762405
0.014977
-0.0213038
0.0259687
-0.0296809
0.0214584
-0.016925
6.13131e-005
0.000189343
0.000416707
0.000413708
0.000833472
0.000859348
0.000881739
0.00227589
-0.00029242
0.00563588
-0.00438383
0.0106733
-0.00853292
0.010244
-0.0130592
0.0030957
SCALARS V float 1
LOOKUP_TABLE default
4.18222e-005
-4.135e-006
-4.72639e-005
-4.50091e-005
-1.31099e-005
9.49468e-006
-1.65141e-005
-2.93886e-005
-5.46429e-005
-1.93224e-005
-2.2551e-005
8.61827e-006
2.81821e-005
3.20488e-005
7.25539e-005
6.13154e-005
0.000126843
-3.2262e-005
-0.000148526
-0.000101077
-5.61971e-007
2.1117e-005
-7.56307e-005
-0.00013828
-0.000125918
-9.32695e-005
-7.42116e-006
-3.46235e-005
0.000124513
7.41961e-005
0.000229505
0.000189352
5.32139e-005
-4.49963e-005
-7.35708e-005
-3.3498e-005
4.29603e-006
-0.000112325
-0.00019037
-0.000221072
-0.000177431
-5.0858e-005
-0.000181061
0.000151372
-9.36473e-005
0.000411207
0.000151009
0.000416739
-5.33546e-005
8.40079e-006
5.6713e-005
5.17227e-005
-0.000131142
-0.000232216
-0.00028639
-0.000232417
-8.51685e-005
-0.000367725
0.000118117
-0.0004302
0.000549151
-0.000101714
0.000726926
0.00041372
-2.13954e-005
7.32421e-005
0.000120717
-5.96784e-005
-0.000196222
-0.00028804
-0.000231535
-7.57952e-005
-0.000537108
4.23926e-005
-0.00088665
0.000622005
-0.000575537
0.000978045
0.000211327
0.000833473
0.000109274
0.000129648
7.0299e-006
-9.90264e-005
-0.000198965
-0.000158075
-5.01802e-006
-0.000618381
-1.05589e-005
-0.00134977
0.000653942
-0.00121339
0.00111443
-0.000203086
0.00098647
0.000859333
0.000212896
0.000106045
1.50173e-005
-6.37409e-005
-3.57677e-005
0.000110726
-0.000579209
2.85035e-005
-0.00165369
0.000721845
-0.00185076
0.00116631
-0.000930072
0.000649368
0.00115587
0.00088174
0.000226008
0.000161306
9.94158e-005
0.00010403
0.000242538
-0.000426838
0.000176116
-0.00168271
0.000888009
-0.00226698
0.00122731
-0.00185703
-2.66324e-005
0.00139219
-0.000686261
0.00227589
0.000259109
0.000245533
0.000234445
0.000359306
-0.000202194
0.000394687
-0.00142669
0.00113091
-0.00232086
0.00139036
-0.00261537
-0.000731186
0.00121417
-0.00336441
0.00549022
-0.000292434
0.000332056
0.000324073
0.000430436
2.21432e-005
0.000589813
-0.00099005
0.00135568
-0.00202222
0.00165311
-0.00282749
-0.00107656
0.000919633
-0.00601911
0.00859246
-0.00762402
0.00563583
0.00038223
0.000453429
0.000198823
0.00067932
-0.000535281
0.00144122
-0.00151323
0.00188779
-0.0024052
-0.000859625
0.000992566
-0.00763779
0.0107531
-0.0160615
0.0149769
-0.00438381
0.000428792
0.00030765
0.000648507
-0.000170846
0.00132931
-0.000977478
0.00192226
-0.00162168
-0.000276122
0.00149491
-0.00778813
0.0119548
-0.0219228
0.0223847
-0.0213037
0.0106733
0.000344082
0.000519952
6.13589e-005
0.00105456
-0.000535849
0.00167767
-0.000870145
0.000249151
0.00198522
-0.00665762
0.0120638
-0.0232955
0.0259653
-0.0346661
0.0259686
-0.00853292
0.000351322
0.000165741
0.00069767
-0.000231811
0.00121736
-0.000375817
0.000433549
0.00199441
-0.00492015
0.0108197
-0.0199432
0.0254254
-0.0374573
0.0331995
-0.0296809
0.0102439
0.000171433
0.000357872
-6.2343e-005
0.000689381
-0.000138986
0.000298752
0.0015113
-0.00330125
0.00811996
-0.0140203
0.0209257
-0.0298155
0.0323142
-0.0331416
0.0214584
-0.0130593
0.00010105
-1.9674e-005
0.000252389
-8.02611e-005
5.35121e-005
0.000851078
-0.00206693
0.00489274
-0.00857435
0.0138607
-0.0192734
0.0240137
-0.0238739
0.0223855
-0.016925
0.0030957
SCALARS B float 1
LOOKUP_TABLE default
1
1
1
1
1
1
1
1
1
1
1
1
1
1
1
1
1
1
1
1
1
1
1
1
1
1
1
1
1
1
1
1
1
1
1
1
1
1
1
1
1
1
1
1
1
1
1
1
1
1
1
1
1
1
1
1
1
1
1
1
1
1
1
1
1
1
1
1
1
1
1
1
1
1
1
1
1
1
1
1
1
1
1
1
1
1
1
1
1
1
1
1
1
1
1
1
1
1
1
1
1
1
1
1
1
1
1
1
1
1
1
1
1
1
1
1
1
1
1
1
1
1
1
1
1
1
1
1
1
1
1
1
1
1
1
1
1
1
1
1
1
1
1
1
1
1
1
1
1
1
1
1
1
1
1
1
1
1
1
1
1
1
1
1
1
1
1
1
1
1
1
1
1
1
1
1
1
1
1
1
1
1
1
1
1
1
1
1
1
1
1
1
1
1
1
1
1
1
1
1
1
1
1
1
1
1
1
1
1
1
1
1
1
1
1
1
1
1
1
1
1
1
1
1
1
1
1
1
1
1
1
1
1
1
1
1
1
1
1
1
1
1
1
1
1
1
1
1
1
1
1
1
1
1
1
1
