# vtk DataFile Version 2.0
HPC Tutorials: Michael Bader, Kaveh Rahnema, Oliver Meister
ASCII
DATASET RECTILINEAR_GRID
DIMENSIONS 17 17 1
X_COORDINATES 17 float
0
0.005
0.01
0.015
0.02
0.025
0.03
0.035
0.04
0.045
0.05
0.055
0.06
0.065
0.07
0.075
0.08
Y_COORDINATES 17 float
0
0.005
0.01
0.015
0.02
0.025
0.03
0.035
0.04
0.045
0.05
0.055
0.06
0.065
0.07
0.075
0.08
Z_COORDINATES 1 float
0
CELL_DATA 256
SCALARS H float 1
LOOKUP_TABLE default
101.935
101.961
102.002
102.006
101.97
101.941
101.948
101.975
101.974
101.968
101.945
101.949
101.936
101.936
101.934
101.93
101.961
101.976
101.979
101.967
101.957
101.963
101.986
101.971
101.977
101.936
101.966
101.934
101.946
101.941
101.918
101.937
102.002
101.979
101.939
101.928
101.962
102.015
101.992
101.989
101.916
101.979
101.932
101.964
101.955
101.896
101.976
101.902
102.006
101.967
101.928
101.941
102.008
102.002
102.008
101.904
101.99
101.932
101.991
101.973
101.867
102.041
101.806
101.972
101.97
101.957
101.962
102.008
101.994
102.005
101.89
102.001
101.94
102.031
101.996
101.834
102.121
101.674
102.147
101.811
101.941
101.963
102.015
102.002
102.005
101.878
102
101.947
102.072
102.02
101.8
102.206
101.531
102.389
101.516
102.054
101.948
101.986
101.992
102.008
101.89
102
101.949
102.097
102.038
101.769
102.278
101.403
102.687
101.181
102.45
101.655
101.975
101.971
101.989
101.904
102.001
101.948
102.097
102.044
101.749
102.325
101.311
103.002
100.856
102.912
101.129
102.058
101.974
101.977
101.916
101.99
101.94
102.072
102.038
101.749
102.341
101.264
103.255
100.602
103.394
100.557
102.454
101.625
101.968
101.936
101.979
101.932
102.031
102.02
101.769
102.325
101.264
103.353
100.463
103.774
100.025
102.9
101.445
101.772
101.945
101.966
101.932
101.991
101.996
101.8
102.278
101.311
103.255
100.463
103.917
99.6985
103.334
101.228
101.134
102.301
101.949
101.934
101.964
101.973
101.834
102.206
101.403
103.002
100.602
103.774
99.6985
103.522
101.127
100.793
103.719
100.452
101.936
101.946
101.955
101.867
102.122
101.531
102.687
100.856
103.394
100.025
103.334
101.127
100.794
104.85
97.5329
103.69
101.936
101.941
101.896
102.041
101.674
102.389
101.181
102.912
100.557
102.9
101.228
100.793
104.85
96.6221
107.451
99.5556
101.934
101.918
101.976
101.806
102.147
101.516
102.45
101.129
102.454
101.445
101.134
103.719
97.5329
107.451
96.9068
104.169
101.93
101.937
101.902
101.972
101.811
102.054
101.655
102.058
101.625
101.772
102.301
100.452
103.69
99.5556
104.169
100.197
SCALARS U float 1
LOOKUP_TABLE default
5.33818e-005
0.000125618
7.38146e-005
5.11751e-005
0.000144943
0.000278917
0.000325817
0.000348226
0.000393105
0.000486801
0.000540149
0.000507917
0.000499203
0.000345416
0.000291567
5.62184e-005
4.49511e-006
-4.53964e-006
3.11552e-005
0.000114413
0.000208836
0.000217489
0.000254369
0.000282231
0.000421131
0.000498208
0.000488299
0.000592728
0.000355479
0.000547886
0.000104969
0.000211452
-3.07524e-005
-6.22504e-005
4.12512e-005
0.000168996
0.000140217
0.000125234
0.000113386
0.000322892
0.00042353
0.000417033
0.000602079
0.000271686
0.000810753
4.36479e-005
0.000620494
-0.000146394
-1.94234e-005
-3.75923e-006
8.95676e-005
6.98483e-005
2.72876e-005
-5.38605e-005
0.000173142
0.000303436
0.000305348
0.000524592
6.67493e-005
0.00100444
-0.000138138
0.00113905
-0.000285887
0.000454057
1.11497e-005
6.02345e-005
2.07306e-005
-4.39848e-005
-0.000163295
3.14067e-005
0.000150427
0.000144728
0.000362058
-0.000243004
0.0010659
-0.000449446
0.00165549
-0.000612988
0.00108032
-0.000181814
1.16464e-005
5.60217e-006
-7.25506e-005
-0.000208237
-6.80925e-005
2.25066e-005
-1.4692e-005
0.00015006
-0.000610405
0.000963979
-0.000869956
0.0020376
-0.00114658
0.00176231
-0.000321561
3.25157e-006
-5.59144e-006
-7.42647e-005
-0.000190957
-0.000125606
-7.04725e-005
-0.000125382
-1.98022e-005
-0.000915085
0.000732916
-0.00133596
0.00218604
-0.00187771
0.00223819
-0.000728363
0.000255223
0.00139946
-3.96541e-005
-0.00011946
-0.000124724
-0.000114275
-0.000184425
-0.000106946
-0.00103706
0.000487893
-0.00171627
0.00208832
-0.00267273
0.00232314
-0.00147936
0.000370137
0.00238636
-0.00340708
-1.91774e-005
-7.55077e-005
-8.68174e-005
-0.000168933
-0.000107492
-0.000949847
0.000327312
-0.00186336
0.00183847
-0.00325535
0.0020506
-0.00249139
0.000116223
0.00308788
-0.00550408
0.00739208
-3.13385e-005
-3.08257e-005
-9.82048e-005
-3.73202e-005
-0.000693887
0.000284619
-0.00170638
0.00156503
-0.00334675
0.00168
-0.00333099
-0.000431567
0.00313905
-0.00815272
0.011518
-0.0128574
9.9723e-006
-3.20685e-005
3.40409e-005
-0.000377544
0.00032379
-0.00128489
0.00134889
-0.00286846
0.00148092
-0.00346648
-0.000881173
0.00276784
-0.0104805
0.0144331
-0.0205016
0.0195003
8.32244e-007
6.37435e-005
-0.000117399
0.000353505
-0.000747896
0.00118728
-0.0020035
0.00149994
-0.0027531
-0.000836976
0.0024647
-0.0111046
0.0153274
-0.027741
0.0284745
-0.0253909
3.47589e-005
3.4458e-005
0.000316749
-0.000271381
0.00101585
-0.00107241
0.00156736
-0.00158551
-0.000204967
0.00239165
-0.0094091
0.0144348
-0.0297402
0.0324946
-0.0365465
0.0307582
5.37004e-005
0.000211236
3.8908e-005
0.000786
-0.000334553
0.00148872
-0.000538456
0.000680997
0.00224821
-0.00579487
0.0118953
-0.0237108
0.0295464
-0.0410538
0.0373119
-0.028531
5.89845e-005
0.000148431
0.000507974
0.000123806
0.00117691
0.000131039
0.00126832
0.00167318
-0.00162179
0.00771551
-0.0123044
0.0206382
-0.0281042
0.0305822
-0.0328878
0.021727
7.79424e-005
0.000250106
0.000316033
0.00069876
0.000546108
0.00115364
0.00111454
0.00103539
0.00312706
-0.00134015
0.00755541
-0.00600154
0.0135382
-0.0131385
0.00846729
-0.0107946
SCALARS V float 1
LOOKUP_TABLE default
5.33812e-005
4.49716e-006
-3.07546e-005
-1.94175e-005
1.11552e-005
1.16461e-005
-5.5856e-006
-3.96675e-005
-1.91806e-005
-3.13403e-005
9.96679e-006
8.26278e-007
3.47452e-005
5.37123e-005
5.89931e-005
7.79483e-005
0.000125626
-4.52687e-006
-6.22511e-005
-3.75677e-006
6.02443e-005
5.60347e-006
-7.42621e-005
-0.000119472
-7.5519e-005
-3.08163e-005
-3.20782e-005
6.37081e-005
3.44526e-005
0.000211243
0.000148455
0.000250134
7.38246e-005
3.11762e-005
4.12784e-005
8.95776e-005
2.0732e-005
-7.25352e-005
-0.000190965
-0.000124721
-8.68136e-005
-9.81967e-005
3.40181e-005
-0.000117399
0.000316731
3.89378e-005
0.000507982
0.000316055
5.11866e-005
0.000114406
0.000169007
6.98653e-005
-4.397e-005
-0.000208221
-0.000125602
-0.00011429
-0.000168911
-3.7329e-005
-0.000377509
0.0003535
-0.000271359
0.000785998
0.000123852
0.000698783
0.000144948
0.000208837
0.000140225
2.72959e-005
-0.000163284
-6.8099e-005
-7.04718e-005
-0.000184405
-0.000107498
-0.000693851
0.000323782
-0.000747867
0.00101586
-0.000334493
0.0011769
0.00054617
0.000278915
0.000217498
0.000125244
-5.38623e-005
3.14144e-005
2.25243e-005
-0.000125361
-0.000106942
-0.000949815
0.000284608
-0.00128484
0.0011873
-0.00107237
0.00148871
0.0001311
0.00115364
0.00032581
0.000254355
0.000113388
0.000173166
0.00015045
-1.46819e-005
-1.97834e-005
-0.00103703
0.000327309
-0.00170634
0.00134889
-0.00200344
0.00156737
-0.000538397
0.00126834
0.00111456
0.000348218
0.000282254
0.000322892
0.000303449
0.000144724
0.000150077
-0.000915095
0.000487894
-0.00186334
0.00156502
-0.00286843
0.00149992
-0.00158547
0.000680987
0.00167318
0.0010354
0.000393128
0.000421139
0.000423553
0.000305325
0.00036207
-0.00061043
0.000732935
-0.00171627
0.00183847
-0.00334675
0.0014809
-0.00275309
-0.000204978
0.00224821
-0.00162179
0.00312702
0.000486803
0.000498199
0.000417012
0.000524627
-0.000243036
0.000964
-0.00133599
0.00208832
-0.00325536
0.00168001
-0.00346649
-0.000836975
0.00239165
-0.00579488
0.00771547
-0.00134016
0.000540117
0.000488296
0.000602109
6.67232e-005
0.00106594
-0.000869987
0.00218605
-0.00267276
0.0020506
-0.00333099
-0.000881165
0.00246469
-0.00940907
0.0118953
-0.0123044
0.00755541
0.000507922
0.000592739
0.000271681
0.00100448
-0.000449463
0.00203764
-0.00187775
0.00232316
-0.00249141
-0.000431579
0.00276784
-0.0111046
0.0144348
-0.0237108
0.0206382
-0.00600151
0.000499231
0.00035548
0.000810765
-0.000138154
0.00165551
-0.00114661
0.00223823
-0.00147938
0.000116223
0.00313906
-0.0104805
0.0153274
-0.0297402
0.0295463
-0.0281042
0.0135382
0.000345457
0.00054792
4.36272e-005
0.00113906
-0.000613021
0.00176232
-0.0007284
0.000370127
0.00308786
-0.00815273
0.0144331
-0.027741
0.0324946
-0.0410537
0.0305822
-0.0131385
0.00029159
0.000104977
0.000620523
-0.000285907
0.00108034
-0.000321587
0.000255217
0.00238636
-0.00550409
0.011518
-0.0205016
0.0284745
-0.0365465
0.0373119
-0.0328878
0.00846726
5.62264e-005
0.000211467
-0.000146415
0.000454079
-0.000181858
3.24467e-006
0.00139948
-0.00340711
0.00739211
-0.0128574
0.0195004
-0.025391
0.0307582
-0.028531
0.021727
-0.0107946
SCALARS B float 1
LOOKUP_TABLE default
1
1
1
1
1
1
1
1
1
1
1
1
1
1
1
1
1
1
1
1
1
1
1
1
1
1
1
1
1
1
1
1
1
1
1
1
1
1
1
1
1
1
1
1
1
1
1
1
1
1
1
1
1
1
1
1
1
1
1
1
1
1
1
1
1
1
1
1
1
1
1
1
1
1
1
1
1
1
1
1
1
1
1
1
1
1
1
1
1
1
1
1
1
1
1
1
1
1
1
1
1
1
1
1
1
1
1
1
1
1
1
1
1
1
1
1
1
1
1
1
1
1
1
1
1
1
1
1
1
1
1
1
1
1
1
1
1
1
1
1
1
1
1
1
1
1
1
1
1
1
1
1
1
1
1
1
1
1
1
1
1
1
1
1
1
1
1
1
1
1
1
1
1
1
1
1
1
1
1
1
1
1
1
1
1
1
1
1
1
1
1
1
1
1
1
1
1
1
1
1
1
1
1
1
1
1
1
1
1
1
1
1
1
1
1
1
1
1
1
1
1
1
1
1
1
1
1
1
1
1
1
1
1
1
1
1
1
1
1
1
1
1
1
1
1
1
1
1
1
1
1
1
1
1
1
1
