# vtk DataFile Version 2.0
HPC Tutorials: Michael Bader, Kaveh Rahnema, Oliver Meister
ASCII
DATASET RECTILINEAR_GRID
DIMENSIONS 17 17 1
X_COORDINATES 17 float
0
0.005
0.01
0.015
0.02
0.025
0.03
0.035
0.04
0.045
0.05
0.055
0.06
0.065
0.07
0.075
0.08
Y_COORDINATES 17 float
0
0.005
0.01
0.015
0.02
0.025
0.03
0.035
0.04
0.045
0.05
0.055
0.06
0.065
0.07
0.075
0.08
Z_COORDINATES 1 float
0
CELL_DATA 256
SCALARS H float 1
LOOKUP_TABLE default
101.933
101.975
101.996
101.972
101.942
101.946
101.967
101.971
101.96
101.945
101.953
101.94
101.949
101.932
101.938
101.935
101.975
101.968
101.953
101.944
101.96
101.977
101.975
101.963
101.937
101.965
101.931
101.972
101.92
101.951
101.93
101.933
101.996
101.953
101.924
101.952
101.99
101.99
101.965
101.922
101.975
101.926
102.005
101.902
101.972
101.924
101.922
101.938
101.972
101.944
101.952
101.986
101.996
101.969
101.907
101.979
101.925
102.05
101.884
101.997
101.91
101.909
101.98
101.891
101.942
101.96
101.99
101.996
101.969
101.899
101.983
101.926
102.096
101.87
102.022
101.892
101.903
102.047
101.765
101.991
101.946
101.977
101.991
101.969
101.899
101.985
101.93
102.133
101.858
102.04
101.868
101.912
102.137
101.618
102.24
101.746
101.967
101.975
101.965
101.907
101.983
101.93
102.149
101.854
102.048
101.844
101.936
102.248
101.484
102.543
101.277
102.129
101.971
101.963
101.922
101.979
101.926
102.133
101.854
102.051
101.83
101.961
102.356
101.387
102.86
100.767
102.813
101.435
101.96
101.937
101.975
101.925
102.096
101.858
102.048
101.83
101.973
102.426
101.335
103.13
100.289
103.576
100.505
102.308
101.945
101.965
101.926
102.05
101.87
102.04
101.844
101.961
102.426
101.32
103.287
99.9431
104.296
99.6385
103.381
101.152
101.953
101.931
102.005
101.884
102.022
101.868
101.936
102.356
101.335
103.287
99.8167
104.765
99.0138
104.37
100.043
102.048
101.94
101.972
101.902
101.997
101.892
101.912
102.248
101.387
103.13
99.9431
104.765
98.7949
105.118
99.0981
102.201
101.739
101.949
101.92
101.972
101.91
101.903
102.137
101.484
102.86
100.289
104.296
99.0138
105.118
98.7131
102.193
102.034
101.751
101.932
101.951
101.924
101.909
102.047
101.618
102.543
100.767
103.576
99.6386
104.37
99.0981
102.193
101.855
99.5149
104.242
101.938
101.93
101.922
101.98
101.765
102.24
101.277
102.813
100.505
103.381
100.043
102.201
102.034
99.5149
105.546
100.343
101.935
101.933
101.938
101.891
101.991
101.746
102.129
101.435
102.308
101.152
102.048
101.739
101.751
104.242
100.343
101.931
SCALARS U float 1
LOOKUP_TABLE default
-6.30666e-006
-8.36328e-005
-8.58389e-005
3.7532e-005
0.000158512
0.000157423
0.000116403
0.000138996
0.000274767
0.000356755
0.000412903
0.00040078
0.000367509
0.00033221
0.000174517
0.000105086
-1.51372e-005
-3.47898e-005
2.50744e-006
5.11143e-005
4.75768e-005
5.11917e-005
6.9146e-005
0.000225452
0.000260394
0.000377331
0.000350558
0.00038601
0.000438031
0.000224198
0.000349085
-5.99291e-005
-3.01311e-006
5.94507e-005
8.39912e-005
-1.35428e-005
-9.47003e-005
-9.46025e-005
0.00014896
0.000184444
0.000332211
0.000221359
0.000330842
0.000476316
0.000219331
0.000638741
-0.000115044
0.000410569
1.05037e-005
8.35522e-005
2.80986e-005
-0.000107881
-0.000216542
2.52164e-006
5.05715e-005
0.000254128
4.87402e-005
0.000192051
0.00041985
0.000138562
0.000924271
-0.000304698
0.000981545
-0.000523723
-1.40912e-007
-2.48953e-005
-0.000107299
-0.000216563
-6.34712e-005
-7.30941e-005
0.000122553
-0.000169712
-2.60011e-005
0.000259071
-2.99907e-005
0.00112944
-0.000644398
0.0016685
-0.000982383
0.00107631
-3.2108e-005
-0.000144193
-0.000237556
-0.00010626
-0.000124214
2.90611e-005
-0.000356186
-0.000278221
1.09016e-005
-0.000279734
0.00118514
-0.00114567
0.00226811
-0.00172979
0.00219582
-0.00111983
-5.23957e-005
-0.00018302
-0.00015375
-0.000176755
-4.03327e-005
-0.000434103
-0.000451533
-0.000239217
-0.000561174
0.00107682
-0.00175923
0.00257433
-0.00274172
0.00345306
-0.0019739
0.00128654
-3.61341e-005
-9.44236e-005
-0.000160597
-9.45495e-005
-0.000426875
-0.000497532
-0.000388253
-0.000777806
0.000865708
-0.0023245
0.002515
-0.0039327
0.00443286
-0.00321307
0.00241707
-0.000155524
-3.39145e-005
-6.65203e-005
-7.22034e-005
-0.000326482
-0.000426407
-0.000398917
-0.000846596
0.000655265
-0.00262076
0.00221678
-0.00500014
0.00483853
-0.0046799
0.00334241
-0.000628833
-0.00205345
-2.49242e-006
-3.74077e-005
-0.000169101
-0.000265812
-0.000281675
-0.000739875
0.000524139
-0.00250011
0.00191004
-0.00548419
0.00467406
-0.00597826
0.00359399
-0.00171643
-0.00343333
0.00621601
-3.06248e-005
-4.7091e-005
-0.000106643
-0.000104122
-0.0004954
0.000487035
-0.00199408
0.00173879
-0.00508243
0.00420605
-0.00648731
0.00329765
-0.00300185
-0.00522234
0.00886962
-0.0135645
2.2851e-005
-1.40546e-005
3.5824e-005
-0.000216734
0.00049498
-0.00128928
0.00166
-0.00391536
0.00371886
-0.00584064
0.0030059
-0.00359727
-0.0068411
0.0102463
-0.020076
0.022006
1.27234e-006
9.17595e-005
-8.3252e-006
0.000470713
-0.000611141
0.00152923
-0.00244598
0.00328622
-0.00426831
0.00305519
-0.00289617
-0.00640805
0.00963212
-0.0245749
0.0299749
-0.03226
5.85991e-005
8.2341e-005
0.00037399
-0.000115628
0.00124476
-0.00112966
0.0027542
-0.0024387
0.003246
-0.00151736
-0.00332519
0.00817733
-0.021989
0.0298414
-0.0401545
0.0358304
4.96119e-005
0.000227081
0.000148456
0.000829175
-0.000176816
0.00196366
-0.000851233
0.0029825
-0.000385042
0.000291104
0.00541898
-0.0110317
0.021236
-0.0321056
0.0340633
-0.0306584
7.10694e-005
0.000189596
0.00042958
0.000360006
0.00101468
0.000404313
0.00180805
0.000715151
0.00186107
0.00219474
-0.000424365
0.00798292
-0.00771871
0.0138296
-0.0131925
0.0141282
SCALARS V float 1
LOOKUP_TABLE default
-6.3027e-006
-1.51304e-005
-3.02026e-006
1.05034e-005
-1.39262e-007
-3.21105e-005
-5.23904e-005
-3.61332e-005
-3.39084e-005
-2.48764e-006
-3.06192e-005
2.28551e-005
1.27333e-006
5.85948e-005
4.96077e-005
7.10661e-005
-8.36252e-005
-3.47797e-005
5.94484e-005
8.35448e-005
-2.49008e-005
-0.000144169
-0.000183019
-9.44225e-005
-6.64984e-005
-3.74034e-005
-4.70714e-005
-1.4062e-005
9.17672e-005
8.23299e-005
0.000227071
0.000189568
-8.58619e-005
2.50047e-006
8.39799e-005
2.80978e-005
-0.000107312
-0.000237558
-0.000153749
-0.000160592
-7.22114e-005
-0.000169097
-0.000106664
3.58157e-005
-8.36117e-006
0.000373983
0.000148437
0.000429541
3.75229e-005
5.11031e-005
-1.35593e-005
-0.000107902
-0.000216579
-0.000106276
-0.000176747
-9.4557e-005
-0.000326486
-0.000265799
-0.000104132
-0.000216743
0.000470717
-0.000115633
0.000829156
0.000359999
0.000158498
4.75607e-005
-9.47118e-005
-0.000216559
-6.3485e-005
-0.000124234
-4.03584e-005
-0.000426879
-0.000426404
-0.000281684
-0.000495401
0.000494972
-0.000611149
0.00124477
-0.000176827
0.00101469
0.000157433
5.11747e-005
-9.46199e-005
2.48655e-006
-7.31177e-005
2.9035e-005
-0.000434121
-0.00049753
-0.000398941
-0.000739875
0.000487023
-0.0012893
0.00152923
-0.00112968
0.00196367
0.000404312
0.000116388
6.91504e-005
0.000148951
5.05569e-005
0.000122533
-0.000356219
-0.00045156
-0.000388286
-0.000846608
0.00052412
-0.0019941
0.00166
-0.002446
0.0027542
-0.000851216
0.00180806
0.000138984
0.000225445
0.000184438
0.000254141
-0.00016973
-0.000278236
-0.000239254
-0.000777834
0.000655244
-0.00250013
0.00173878
-0.0039154
0.00328621
-0.00243871
0.00298247
0.000715157
0.000274778
0.000260382
0.000332215
4.87254e-005
-2.60098e-005
1.08974e-005
-0.000561169
0.000865684
-0.00262078
0.00191002
-0.00508244
0.00371886
-0.00426833
0.00324598
-0.000385047
0.00186104
0.000356739
0.000377333
0.000221359
0.000192039
0.000259069
-0.000279757
0.00107679
-0.00232453
0.00221675
-0.00548422
0.00420603
-0.00584064
0.00305517
-0.00151735
0.000291093
0.00219474
0.000412893
0.000350532
0.000330835
0.000419865
-2.99891e-005
0.00118515
-0.00175922
0.00251501
-0.00500013
0.00467405
-0.00648732
0.00300587
-0.00289616
-0.00332523
0.00541899
-0.000424402
0.000400748
0.000386007
0.000476297
0.000138556
0.00112944
-0.00114566
0.00257432
-0.00393269
0.00483853
-0.00597827
0.00329764
-0.00359727
-0.00640809
0.00817735
-0.0110318
0.00798293
0.000367505
0.000438016
0.000219334
0.00092426
-0.000644401
0.0022681
-0.00274171
0.00443284
-0.00467991
0.00359398
-0.00300187
-0.00684112
0.00963212
-0.0219891
0.021236
-0.00771874
0.000332206
0.000224209
0.000638732
-0.000304702
0.00166849
-0.00172978
0.00345305
-0.00321308
0.00334241
-0.00171646
-0.00522234
0.0102463
-0.0245749
0.0298415
-0.0321057
0.0138296
0.0001745
0.000349062
-0.000115052
0.000981553
-0.00098237
0.00219582
-0.00197392
0.00241706
-0.000628852
-0.0034333
0.00886958
-0.0200759
0.0299749
-0.0401545
0.0340633
-0.0131925
0.000105071
-5.99353e-005
0.000410575
-0.000523727
0.00107631
-0.00111984
0.00128655
-0.000155559
-0.00205343
0.00621597
-0.0135644
0.0220059
-0.03226
0.0358304
-0.0306584
0.0141282
SCALARS B float 1
LOOKUP_TABLE default
1
1
1
1
1
1
1
1
1
1
1
1
1
1
1
1
1
1
1
1
1
1
1
1
1
1
1
1
1
1
1
1
1
1
1
1
1
1
1
1
1
1
1
1
1
1
1
1
1
1
1
1
1
1
1
1
1
1
1
1
1
1
1
1
1
1
1
1
1
1
1
1
1
1
1
1
1
1
1
1
1
1
1
1
1
1
1
1
1
1
1
1
1
1
1
1
1
1
1
1
1
1
1
1
1
1
1
1
1
1
1
1
1
1
1
1
1
1
1
1
1
1
1
1
1
1
1
1
1
1
1
1
1
1
1
1
1
1
1
1
1
1
1
1
1
1
1
1
1
1
1
1
1
1
1
1
1
1
1
1
1
1
1
1
1
1
1
1
1
1
1
1
1
1
1
1
1
1
1
1
1
1
1
1
1
1
1
1
1
1
1
1
1
1
1
1
1
1
1
1
1
1
1
1
1
1
1
1
1
1
1
1
1
1
1
1
1
1
1
1
1
1
1
1
1
1
1
1
1
1
1
1
1
1
1
1
1
1
1
1
1
1
1
1
1
1
1
1
1
1
1
1
1
1
1
1
