# vtk DataFile Version 2.0
HPC Tutorials: Michael Bader, Kaveh Rahnema, Oliver Meister
ASCII
DATASET RECTILINEAR_GRID
DIMENSIONS 17 17 1
X_COORDINATES 17 float
0
0.005
0.01
0.015
0.02
0.025
0.03
0.035
0.04
0.045
0.05
0.055
0.06
0.065
0.07
0.075
0.08
Y_COORDINATES 17 float
0
0.005
0.01
0.015
0.02
0.025
0.03
0.035
0.04
0.045
0.05
0.055
0.06
0.065
0.07
0.075
0.08
Z_COORDINATES 1 float
0
CELL_DATA 256
SCALARS H float 1
LOOKUP_TABLE default
101.981
101.976
101.948
101.933
101.953
101.985
101.983
101.961
101.944
101.946
101.955
101.944
101.95
101.932
101.942
101.933
101.976
101.96
101.949
101.958
101.98
101.974
101.962
101.947
101.95
101.968
101.939
101.97
101.913
101.964
101.917
101.939
101.948
101.949
101.975
102.005
101.982
101.948
101.927
101.947
101.992
101.943
101.998
101.883
101.999
101.885
101.959
101.922
101.933
101.958
102.005
102.001
101.962
101.919
101.934
102.007
101.952
102.031
101.848
102.043
101.841
101.998
101.905
101.924
101.953
101.98
101.982
101.962
101.926
101.94
102.023
101.96
102.057
101.808
102.09
101.797
102.063
101.885
101.891
101.943
101.985
101.974
101.948
101.919
101.94
102.036
101.973
102.076
101.769
102.128
101.76
102.157
101.865
101.859
102.057
101.806
101.983
101.962
101.927
101.934
102.023
101.973
102.086
101.748
102.153
101.737
102.266
101.852
101.841
102.193
101.476
102.076
101.961
101.947
101.947
102.007
101.96
102.076
101.748
102.163
101.728
102.359
101.846
101.835
102.323
101.149
102.697
101.465
101.944
101.95
101.992
101.952
102.057
101.769
102.153
101.728
102.396
101.845
101.835
102.425
100.887
103.403
100.457
102.386
101.945
101.968
101.943
102.031
101.808
102.128
101.737
102.359
101.845
101.836
102.482
100.727
104.077
99.5699
103.852
100.751
101.955
101.939
101.998
101.848
102.09
101.76
102.266
101.846
101.835
102.482
100.676
104.52
98.9585
105.215
98.8553
102.568
101.944
101.97
101.883
102.043
101.797
102.157
101.852
101.835
102.425
100.727
104.52
98.7417
106.056
97.3865
104.654
100.468
101.95
101.913
101.999
101.841
102.063
101.865
101.841
102.323
100.887
104.077
98.9585
106.056
96.7664
105.571
98.7512
102.844
101.932
101.964
101.885
101.998
101.885
101.859
102.193
101.149
103.403
99.5699
105.215
97.3865
105.571
97.8171
103.027
101.871
101.942
101.917
101.959
101.905
101.891
102.057
101.476
102.697
100.457
103.852
98.8553
104.654
98.7512
103.027
101.971
101.632
101.933
101.939
101.922
101.924
101.943
101.806
102.076
101.465
102.386
100.751
102.568
100.468
102.844
101.871
101.632
102.995
SCALARS U float 1
LOOKUP_TABLE default
-4.09986e-005
-0.00012012
-3.49159e-005
9.91025e-005
0.000127101
7.83662e-005
9.69905e-005
0.000194962
0.00031714
0.000345316
0.000402482
0.000384916
0.000396626
0.000315159
0.000195372
9.38676e-005
-9.87394e-007
2.09018e-005
3.82668e-005
1.58016e-005
-9.2507e-006
3.86679e-005
0.000125527
0.000260656
0.000242165
0.000372462
0.00030641
0.000461682
0.000364416
0.000312264
0.00028049
-2.06685e-005
3.36845e-005
0.000108622
3.10437e-005
-9.82735e-005
-9.27124e-005
2.44048e-005
0.000209213
0.000128086
0.000284325
0.000144313
0.000483818
0.000343001
0.0004066
0.000455125
1.70844e-005
0.000357498
2.00779e-005
3.38074e-005
-7.41767e-005
-0.000137963
-8.04276e-005
0.00011556
3.26217e-006
0.000155202
-9.04878e-005
0.000423497
0.000244507
0.000447271
0.000576214
-2.86593e-005
0.00082897
-0.000523
-2.21055e-005
-0.000107963
-0.00014889
-0.000115728
4.05197e-005
-0.000113632
5.7388e-006
-0.000347401
0.000279279
6.08457e-005
0.000394284
0.000577372
-0.000204666
0.00137183
-0.000925388
0.00129153
-5.5345e-005
-0.000154317
-0.00014934
-1.937e-005
-0.000179083
-0.000114169
-0.000559962
9.01872e-005
-0.000171138
0.000239788
0.000408463
-0.000562612
0.00181708
-0.00156504
0.00255918
-0.00183454
-4.55504e-005
-0.000113583
-6.48741e-005
-0.000202012
-0.000171119
-0.000657361
-8.73074e-005
-0.000394674
2.96028e-005
0.000111014
-0.00108844
0.0019851
-0.00240868
0.00398584
-0.00321641
0.00297237
-2.63677e-005
-4.54718e-005
-0.000164469
-0.0001666
-0.000611901
-0.000186767
-0.0005404
-0.000166464
-0.000192418
-0.00163138
0.00182127
-0.00337653
0.00512665
-0.00513116
0.00525037
-0.00334755
-2.28802e-005
-8.37659e-005
-0.000114803
-0.000456309
-0.000186214
-0.000549748
-0.000268738
-0.000362963
-0.00195602
0.00146364
-0.00424241
0.00566234
-0.0072384
0.00734375
-0.00592117
0.00342542
-1.02887e-005
-5.78105e-005
-0.000254264
-0.000116887
-0.000429724
-0.000244462
-0.000328157
-0.00188805
0.00115469
-0.0046634
0.0055719
-0.00895348
0.00847988
-0.00911246
0.00539752
-0.00157673
-3.04459e-005
-7.74826e-005
-2.90398e-005
-0.000234225
-0.000128479
-0.000138874
-0.00145216
0.00105156
-0.00438268
0.00509922
-0.00951731
0.00849193
-0.0118535
0.00676594
-0.00324792
-0.0032496
2.39364e-005
1.79068e-005
-4.38391e-005
1.41801e-005
8.81356e-005
-0.000849052
0.00110452
-0.00344035
0.00451088
-0.00851344
0.00790186
-0.0127826
0.00688731
-0.00499876
-0.00566949
0.00896326
-5.51151e-006
6.35825e-005
0.000107172
0.000244401
-0.000297776
0.00113425
-0.00217165
0.00387546
-0.00630661
0.00719361
-0.0109895
0.00654974
-0.00577931
-0.00643853
0.00989577
-0.0225215
6.84528e-005
0.000112609
0.00027517
7.01582e-005
0.00100078
-0.000966052
0.00307692
-0.00371242
0.0061746
-0.00745084
0.00664042
-0.00480689
-0.00428036
0.00949967
-0.0263919
0.0263539
3.86142e-005
0.000204004
0.000225166
0.000710276
-6.48975e-005
0.00204048
-0.00135899
0.004444
-0.00360925
0.00597902
-0.00290683
0.000479531
0.00584372
-0.0172904
0.0250831
-0.0283552
7.58829e-005
0.000199213
0.000405415
0.000403481
0.000994305
0.000366576
0.00211298
-1.27488e-005
0.0032656
-7.13525e-005
0.0029416
0.00173378
-0.00343673
0.00949567
-0.00738375
0.015231
SCALARS V float 1
LOOKUP_TABLE default
-4.10109e-005
-9.95235e-007
3.36765e-005
2.00753e-005
-2.21042e-005
-5.5342e-005
-4.55563e-005
-2.63685e-005
-2.2885e-005
-1.02879e-005
-3.04432e-005
2.39364e-005
-5.50997e-006
6.84537e-005
3.86217e-005
7.5883e-005
-0.000120139
2.08847e-005
0.000108604
3.38039e-005
-0.000107979
-0.000154327
-0.000113602
-4.54778e-005
-8.37614e-005
-5.78294e-005
-7.74737e-005
1.79209e-005
6.35786e-005
0.000112604
0.000203993
0.00019921
-3.49331e-005
3.82403e-005
3.10163e-005
-7.42139e-005
-0.000148905
-0.00014934
-6.48702e-005
-0.00016446
-0.00011482
-0.00025425
-2.90557e-005
-4.3823e-005
0.000107142
0.000275142
0.00022516
0.000405391
9.9105e-005
1.57894e-005
-9.82718e-005
-0.000137956
-0.000115727
-1.9376e-005
-0.000201996
-0.000166595
-0.000456313
-0.000116893
-0.000234224
1.4152e-005
0.000244411
7.01436e-005
0.000710255
0.000403462
0.000127131
-9.21706e-006
-9.27026e-005
-8.04199e-005
4.05346e-005
-0.000179076
-0.000171096
-0.000611898
-0.000186201
-0.000429695
-0.000128472
8.81817e-005
-0.00029778
0.00100081
-6.4888e-005
0.00099432
7.83838e-005
3.86954e-005
2.44224e-005
0.000115569
-0.000113626
-0.000114154
-0.000657366
-0.000186748
-0.000549707
-0.00024446
-0.000138818
-0.000849054
0.00113429
-0.00096605
0.0020405
0.000366602
9.70178e-005
0.00012556
0.000209241
3.27557e-006
5.74072e-006
-0.00055995
-8.72956e-005
-0.00054039
-0.000268745
-0.000328129
-0.00145218
0.00110456
-0.00217165
0.00307694
-0.00135899
0.00211298
0.000194991
0.000260666
0.000128093
0.00015522
-0.000347359
9.02059e-005
-0.000394653
-0.000166447
-0.000362933
-0.00188804
0.00105159
-0.00344036
0.00387548
-0.00371243
0.00444399
-1.27551e-005
0.000317144
0.000242163
0.000284341
-9.04583e-005
0.000279296
-0.000171137
2.96132e-005
-0.00019241
-0.00195603
0.00115472
-0.00438269
0.00451089
-0.00630662
0.0061746
-0.00360924
0.00326558
0.000345304
0.000372491
0.000144313
0.000423491
6.08339e-005
0.000239793
0.000110999
-0.00163137
0.00146365
-0.00466341
0.00509924
-0.00851344
0.00719359
-0.00745081
0.00597898
-7.13381e-005
0.000402504
0.000306399
0.000483827
0.000244516
0.000394309
0.000408448
-0.00108843
0.00182127
-0.00424239
0.00557191
-0.0095173
0.00790186
-0.0109895
0.00664039
-0.00290679
0.00294161
0.000384924
0.000461683
0.000342985
0.000447295
0.000577349
-0.000562569
0.0019851
-0.00337652
0.00566235
-0.00895345
0.00849194
-0.0127826
0.00654972
-0.00480687
0.000479506
0.0017338
0.000396596
0.000364392
0.000406619
0.000576199
-0.000204636
0.00181707
-0.00240866
0.00512665
-0.0072384
0.00847988
-0.0118535
0.00688732
-0.00577929
-0.00428038
0.00584375
-0.00343677
0.000315148
0.000312255
0.000455112
-2.86496e-005
0.00137181
-0.00156503
0.00398583
-0.00513115
0.00734377
-0.00911247
0.00676597
-0.00499876
-0.00643851
0.0094997
-0.0172905
0.00949571
0.000195361
0.00028049
1.70642e-005
0.00082895
-0.000925382
0.00255915
-0.00321642
0.00525036
-0.00592119
0.00539757
-0.00324794
-0.00566943
0.00989575
-0.0263919
0.0250832
-0.00738375
9.38673e-005
-2.06767e-005
0.000357505
-0.000523001
0.00129153
-0.00183455
0.00297239
-0.00334755
0.00342546
-0.00157677
-0.00324955
0.00896319
-0.0225214
0.0263538
-0.0283552
0.015231
SCALARS B float 1
LOOKUP_TABLE default
1
1
1
1
1
1
1
1
1
1
1
1
1
1
1
1
1
1
1
1
1
1
1
1
1
1
1
1
1
1
1
1
1
1
1
1
1
1
1
1
1
1
1
1
1
1
1
1
1
1
1
1
1
1
1
1
1
1
1
1
1
1
1
1
1
1
1
1
1
1
1
1
1
1
1
1
1
1
1
1
1
1
1
1
1
1
1
1
1
1
1
1
1
1
1
1
1
1
1
1
1
1
1
1
1
1
1
1
1
1
1
1
1
1
1
1
1
1
1
1
1
1
1
1
1
1
1
1
1
1
1
1
1
1
1
1
1
1
1
1
1
1
1
1
1
1
1
1
1
1
1
1
1
1
1
1
1
1
1
1
1
1
1
1
1
1
1
1
1
1
1
1
1
1
1
1
1
1
1
1
1
1
1
1
1
1
1
1
1
1
1
1
1
1
1
1
1
1
1
1
1
1
1
1
1
1
1
1
1
1
1
1
1
1
1
1
1
1
1
1
1
1
1
1
1
1
1
1
1
1
1
1
1
1
1
1
1
1
1
1
1
1
1
1
1
1
1
1
1
1
1
1
1
1
1
1
