# vtk DataFile Version 2.0
HPC Tutorials: Michael Bader, Kaveh Rahnema, Oliver Meister
ASCII
DATASET RECTILINEAR_GRID
DIMENSIONS 17 17 1
X_COORDINATES 17 float
0
0.005
0.01
0.015
0.02
0.025
0.03
0.035
0.04
0.045
0.05
0.055
0.06
0.065
0.07
0.075
0.08
Y_COORDINATES 17 float
0
0.005
0.01
0.015
0.02
0.025
0.03
0.035
0.04
0.045
0.05
0.055
0.06
0.065
0.07
0.075
0.08
Z_COORDINATES 1 float
0
CELL_DATA 256
SCALARS H float 1
LOOKUP_TABLE default
101.922
101.965
102.006
101.994
101.95
101.931
101.95
101.972
101.965
101.958
101.941
101.951
101.936
101.94
101.935
101.935
101.965
101.972
101.963
101.95
101.949
101.966
101.981
101.96
101.963
101.929
101.969
101.929
101.955
101.934
101.929
101.938
102.006
101.963
101.918
101.923
101.972
102.011
101.973
101.965
101.908
101.987
101.921
101.978
101.933
101.919
101.964
101.911
101.994
101.95
101.923
101.954
102.008
101.98
101.972
101.889
102.006
101.921
102.012
101.929
101.905
102.008
101.83
101.969
101.95
101.949
101.972
102.008
101.973
101.967
101.873
102.024
101.929
102.056
101.925
101.888
102.063
101.724
102.13
101.818
101.931
101.966
102.011
101.98
101.967
101.863
102.031
101.938
102.098
101.919
101.869
102.122
101.618
102.352
101.519
102.066
101.95
101.981
101.973
101.972
101.873
102.031
101.942
102.124
101.913
101.848
102.176
101.537
102.623
101.176
102.508
101.617
101.972
101.96
101.965
101.889
102.024
101.938
102.124
101.911
101.834
102.214
101.491
102.906
100.843
103.015
100.967
102.153
101.965
101.963
101.908
102.006
101.929
102.098
101.913
101.834
102.228
101.473
103.131
100.579
103.525
100.284
102.854
101.45
101.958
101.929
101.987
101.921
102.056
101.919
101.848
102.214
101.473
103.219
100.434
103.914
99.6758
103.595
100.813
102.037
101.941
101.969
101.921
102.012
101.925
101.869
102.176
101.491
103.131
100.434
104.06
99.3165
104.267
100.197
102.037
101.831
101.951
101.929
101.978
101.929
101.888
102.122
101.537
102.906
100.579
103.914
99.3165
104.558
99.8512
102.131
102.337
101.026
101.936
101.955
101.933
101.905
102.063
101.618
102.623
100.843
103.525
99.6758
104.267
99.8513
102.303
102.659
98.8112
103.649
101.94
101.934
101.919
102.008
101.724
102.352
101.176
103.015
100.284
103.595
100.197
102.131
102.659
98.0069
106.41
100.388
101.935
101.929
101.964
101.83
102.13
101.519
102.508
100.967
102.854
100.813
102.037
102.337
98.8112
106.41
97.545
104.111
101.935
101.938
101.911
101.969
101.818
102.066
101.617
102.153
101.45
102.037
101.831
101.026
103.649
100.388
104.111
99.9424
SCALARS U float 1
LOOKUP_TABLE default
2.33354e-005
8.0844e-006
-5.37389e-005
-2.23685e-005
9.13444e-005
0.00016617
0.000144292
0.000160378
0.000234493
0.000356249
0.000401929
0.000392459
0.000391073
0.000275775
0.000243003
3.66481e-005
-1.60862e-005
-5.57857e-005
-2.97185e-005
3.59845e-005
8.48283e-005
5.54159e-005
9.52594e-005
0.000136476
0.000298437
0.000334574
0.000367029
0.000440679
0.000282228
0.000460399
5.87631e-005
0.000212104
-3.40541e-005
-3.86015e-005
3.15483e-005
5.46095e-005
-5.12801e-005
-4.61572e-005
-5.4175e-006
0.000244917
0.000255164
0.000290981
0.0003991
0.000210681
0.000679142
-1.57241e-005
0.000603212
-0.000217429
-1.46201e-005
2.35796e-005
5.01852e-005
-7.49773e-005
-0.000143892
-0.0001759
0.000123859
0.000146151
0.000183568
0.000273176
3.25063e-005
0.000838231
-0.000195652
0.00110498
-0.000437811
0.000594517
2.54293e-006
1.80082e-005
-8.00081e-005
-0.000163304
-0.000252709
5.57875e-006
-5.00084e-007
2.24037e-005
6.92651e-005
-0.000242211
0.000884424
-0.000484404
0.00160508
-0.000867075
0.00133466
-0.000536276
-1.2625e-005
-9.12423e-005
-0.000180508
-0.000271948
-6.06471e-005
-9.94645e-005
-0.000130508
-0.00017148
-0.000579511
0.000786866
-0.000864391
0.00196583
-0.00151543
0.0021779
-0.000982839
0.000638279
-3.31203e-005
-0.000150859
-0.000256749
-0.000124437
-0.000162966
-0.000214679
-0.000336097
-0.000866798
0.000571909
-0.00128104
0.0020893
-0.00236387
0.00283071
-0.00173391
0.00138698
0.000321366
-5.27244e-005
-0.000148435
-0.00013085
-0.000192259
-0.000251115
-0.00038542
-0.000985071
0.000343561
-0.00162116
0.00197682
-0.00325751
0.00306541
-0.00278561
0.00210759
0.000496776
-0.00186214
-2.34308e-005
-7.20719e-005
-0.00013439
-0.000213741
-0.000329523
-0.000910039
0.000192999
-0.00175501
0.00173359
-0.0038876
0.00287769
-0.00399738
0.00242471
0.000308443
-0.00298335
0.00531944
-3.68528e-005
-5.30125e-005
-0.000121407
-0.0001889
-0.00067303
0.000155828
-0.00161665
0.00148748
-0.00395191
0.00250484
-0.00490558
0.00225435
-0.000322881
-0.00460097
0.00796015
-0.0107683
5.1402e-006
-5.0482e-005
-5.22922e-005
-0.000372234
0.00020824
-0.00123474
0.00130393
-0.0033792
0.00222101
-0.00498127
0.00187145
-0.000973896
-0.00628756
0.00959714
-0.016942
0.0177827
-1.45287e-005
2.50915e-005
-0.000125896
0.000264559
-0.000736903
0.00116394
-0.0023892
0.00210117
-0.004095
0.00164463
-0.00108421
-0.00686993
0.00980174
-0.0227962
0.0261215
-0.0258127
3.42523e-005
1.64639e-005
0.000259656
-0.00028638
0.000998925
-0.00133604
0.00200279
-0.00266044
0.00175005
-0.000563512
-0.00559701
0.00911625
-0.0245841
0.0297025
-0.0365869
0.0333259
3.69135e-005
0.000185155
1.27602e-005
0.000763452
-0.00049371
0.00174582
-0.00128134
0.00198787
0.000116111
-0.00283539
0.00770741
-0.0191924
0.0265698
-0.0404668
0.0404061
-0.0343116
5.89626e-005
0.00012589
0.000481064
4.35665e-005
0.00126626
-0.000259442
0.00191145
0.000468782
0.000111523
0.00508634
-0.00918544
0.0182171
-0.0269454
0.0324644
-0.0365016
0.0275015
6.80896e-005
0.000230943
0.000280235
0.000681325
0.000431336
0.00125578
0.000782002
0.00148469
0.00226137
-0.000461413
0.00653963
-0.00498048
0.0135014
-0.0139329
0.01204
-0.011201
SCALARS V float 1
LOOKUP_TABLE default
2.33307e-005
-1.60911e-005
-3.40588e-005
-1.46227e-005
2.53409e-006
-1.26245e-005
-3.31272e-005
-5.27233e-005
-2.34191e-005
-3.6845e-005
5.14194e-006
-1.45222e-005
3.42624e-005
3.6917e-005
5.89673e-005
6.80877e-005
8.07718e-006
-5.57902e-005
-3.8617e-005
2.35594e-005
1.79981e-005
-9.12517e-005
-0.000150868
-0.00014843
-7.20649e-005
-5.30006e-005
-5.04654e-005
2.51135e-005
1.64685e-005
0.000185172
0.000125883
0.00023095
-5.3746e-005
-2.97186e-005
3.15508e-005
5.01907e-005
-7.99858e-005
-0.000180488
-0.00025673
-0.00013084
-0.000134375
-0.000121387
-5.22765e-005
-0.000125896
0.000259675
1.2768e-005
0.000481085
0.000280244
-2.23553e-005
3.59968e-005
5.46129e-005
-7.49686e-005
-0.000163295
-0.000271928
-0.000124423
-0.000192249
-0.000213726
-0.000188906
-0.000372232
0.000264576
-0.000286391
0.000763447
4.35771e-005
0.000681329
9.13696e-005
8.48552e-005
-5.12709e-005
-0.000143883
-0.000252697
-6.06436e-005
-0.00016295
-0.000251074
-0.000329512
-0.000673007
0.000208271
-0.000736905
0.000998921
-0.0004937
0.00126626
0.00043138
0.000166187
5.54312e-005
-4.61426e-005
-0.000175894
5.58707e-006
-9.94571e-005
-0.000214649
-0.000385401
-0.000910018
0.000155851
-0.00123476
0.00116393
-0.00133604
0.00174578
-0.000259435
0.00125577
0.000144305
9.52731e-005
-5.39616e-006
0.00012388
-4.82464e-007
-0.000130523
-0.000336105
-0.000985085
0.000192991
-0.00161666
0.00130394
-0.00238919
0.00200277
-0.00128132
0.00191147
0.000781993
0.000160397
0.00013647
0.000244911
0.000146159
2.23852e-005
-0.000171476
-0.000866796
0.000343567
-0.001755
0.00148745
-0.00337921
0.00210114
-0.00266044
0.00198788
0.000468745
0.00148472
0.000234491
0.000298425
0.000255154
0.000183549
6.92709e-005
-0.000579504
0.000571908
-0.00162117
0.00173359
-0.00395191
0.00222098
-0.004095
0.00175007
0.000116039
0.000111584
0.00226134
0.000356231
0.000334555
0.000290956
0.000273158
-0.000242228
0.000786852
-0.00128106
0.00197683
-0.0038876
0.00250484
-0.00498125
0.00164467
-0.000563556
-0.00283531
0.00508626
-0.000461373
0.00040191
0.000367015
0.000399093
3.24971e-005
0.000884402
-0.000864368
0.00208931
-0.00325751
0.00287771
-0.00490559
0.00187144
-0.00108425
-0.00559696
0.00770733
-0.00918537
0.00653961
0.000392438
0.000440647
0.000210678
0.000838217
-0.00048439
0.00196581
-0.00236387
0.00306542
-0.0039974
0.00225434
-0.000973903
-0.00686993
0.0091162
-0.0191924
0.018217
-0.00498047
0.000391049
0.000282228
0.000679107
-0.000195664
0.00160507
-0.00151543
0.00283073
-0.00278563
0.00242469
-0.000322833
-0.00628759
0.00980174
-0.0245841
0.0265698
-0.0269454
0.0135014
0.000275778
0.000460397
-1.57237e-005
0.00110498
-0.000867106
0.00217791
-0.00173394
0.00210756
0.000308494
-0.00460102
0.00959719
-0.0227962
0.0297024
-0.0404669
0.0324644
-0.0139329
0.000243006
5.87812e-005
0.000603233
-0.00043781
0.00133467
-0.000982863
0.00138696
0.000496813
-0.00298346
0.0079602
-0.016942
0.0261215
-0.0365869
0.0404061
-0.0365016
0.01204
3.66664e-005
0.000212107
-0.00021742
0.000594531
-0.000536296
0.000638264
0.000321395
-0.00186221
0.00531952
-0.0107684
0.0177827
-0.0258127
0.0333258
-0.0343116
0.0275015
-0.011201
SCALARS B float 1
LOOKUP_TABLE default
1
1
1
1
1
1
1
1
1
1
1
1
1
1
1
1
1
1
1
1
1
1
1
1
1
1
1
1
1
1
1
1
1
1
1
1
1
1
1
1
1
1
1
1
1
1
1
1
1
1
1
1
1
1
1
1
1
1
1
1
1
1
1
1
1
1
1
1
1
1
1
1
1
1
1
1
1
1
1
1
1
1
1
1
1
1
1
1
1
1
1
1
1
1
1
1
1
1
1
1
1
1
1
1
1
1
1
1
1
1
1
1
1
1
1
1
1
1
1
1
1
1
1
1
1
1
1
1
1
1
1
1
1
1
1
1
1
1
1
1
1
1
1
1
1
1
1
1
1
1
1
1
1
1
1
1
1
1
1
1
1
1
1
1
1
1
1
1
1
1
1
1
1
1
1
1
1
1
1
1
1
1
1
1
1
1
1
1
1
1
1
1
1
1
1
1
1
1
1
1
1
1
1
1
1
1
1
1
1
1
1
1
1
1
1
1
1
1
1
1
1
1
1
1
1
1
1
1
1
1
1
1
1
1
1
1
1
1
1
1
1
1
1
1
1
1
1
1
1
1
1
1
1
1
1
1
