# vtk DataFile Version 2.0
HPC Tutorials: Michael Bader, Kaveh Rahnema, Oliver Meister
ASCII
DATASET RECTILINEAR_GRID
DIMENSIONS 51 51 1
X_COORDINATES 51 float
0
0.02
0.04
0.06
0.08
0.1
0.12
0.14
0.16
0.18
0.2
0.22
0.24
0.26
0.28
0.3
0.32
0.34
0.36
0.38
0.4
0.42
0.44
0.46
0.48
0.5
0.52
0.54
0.56
0.58
0.6
0.62
0.64
0.66
0.68
0.7
0.72
0.74
0.76
0.78
0.8
0.82
0.84
0.86
0.88
0.9
0.92
0.94
0.96
0.98
1
Y_COORDINATES 51 float
0
0.02
0.04
0.06
0.08
0.1
0.12
0.14
0.16
0.18
0.2
0.22
0.24
0.26
0.28
0.3
0.32
0.34
0.36
0.38
0.4
0.42
0.44
0.46
0.48
0.5
0.52
0.54
0.56
0.58
0.6
0.62
0.64
0.66
0.68
0.7
0.72
0.74
0.76
0.78
0.8
0.82
0.84
0.86
0.88
0.9
0.92
0.94
0.96
0.98
1
Z_COORDINATES 1 float
0
CELL_DATA 2500
SCALARS H float 1
LOOKUP_TABLE default
0.769735
0.76946
0.768902
0.768058
0.766927
0.765508
0.763805
0.761827
0.759594
0.757133
0.754486
0.751703
0.748846
0.745982
0.743182
0.740515
0.738039
0.735803
0.733843
0.732177
0.730811
0.729744
0.728962
0.728455
0.728209
0.728209
0.728455
0.728962
0.729744
0.730811
0.732177
0.733843
0.735803
0.738039
0.740515
0.743182
0.745982
0.748846
0.751703
0.754486
0.757133
0.759594
0.761827
0.763805
0.765508
0.766927
0.768058
0.768902
0.76946
0.769735
0.76946
0.769187
0.768634
0.7678
0.766682
0.765282
0.763604
0.761658
0.759464
0.757049
0.754453
0.751724
0.748922
0.746111
0.743358
0.74073
0.738283
0.736067
0.734117
0.732453
0.731084
0.73001
0.729221
0.728708
0.728459
0.728459
0.728708
0.729221
0.73001
0.731084
0.732453
0.734117
0.736067
0.738283
0.74073
0.743358
0.746111
0.748922
0.751724
0.754453
0.757049
0.759464
0.761658
0.763604
0.765282
0.766682
0.7678
0.768634
0.769187
0.76946
0.768902
0.768634
0.768094
0.767278
0.766188
0.764826
0.763199
0.761318
0.759202
0.756878
0.754383
0.751761
0.749067
0.746358
0.743698
0.741145
0.738756
0.736578
0.734647
0.732987
0.731611
0.730523
0.729719
0.729193
0.728938
0.728938
0.729193
0.729719
0.730523
0.731611
0.732987
0.734647
0.736578
0.738756
0.741145
0.743698
0.746358
0.749067
0.751761
0.754383
0.756878
0.759202
0.761318
0.763199
0.764826
0.766188
0.767278
0.768094
0.768634
0.768902
0.768058
0.7678
0.767278
0.766493
0.765447
0.764146
0.762597
0.760814
0.758816
0.756627
0.75428
0.751815
0.749279
0.74672
0.744194
0.741753
0.739448
0.737326
0.735423
0.733769
0.732383
0.731275
0.73045
0.729906
0.72964
0.72964
0.729906
0.73045
0.731275
0.732383
0.733769
0.735423
0.737326
0.739448
0.741753
0.744194
0.74672
0.749279
0.751815
0.75428
0.756627
0.758816
0.760814
0.762597
0.764146
0.765447
0.766493
0.767278
0.7678
0.768058
0.766927
0.766682
0.766188
0.765447
0.764465
0.763248
0.761807
0.760156
0.758314
0.756303
0.75415
0.751889
0.749555
0.747189
0.744836
0.742539
0.740344
0.738296
0.736433
0.734788
0.73339
0.732258
0.731405
0.730837
0.730559
0.730559
0.730837
0.731405
0.732258
0.73339
0.734788
0.736433
0.738296
0.740344
0.742539
0.744836
0.747189
0.749555
0.751889
0.75415
0.756303
0.758314
0.760156
0.761807
0.763248
0.764465
0.765447
0.766188
0.766682
0.766927
0.765508
0.765282
0.764826
0.764146
0.763248
0.762142
0.760839
0.759356
0.757707
0.755914
0.753997
0.75198
0.74989
0.747755
0.745609
0.743486
0.741426
0.739469
0.737656
0.736027
0.734617
0.733457
0.732571
0.731975
0.731681
0.731681
0.731975
0.732571
0.733457
0.734617
0.736027
0.737656
0.739469
0.741426
0.743486
0.745609
0.747755
0.74989
0.75198
0.753997
0.755914
0.757707
0.759356
0.760839
0.762142
0.763248
0.764146
0.764826
0.765282
0.765508
0.763805
0.763604
0.763199
0.762597
0.761807
0.760839
0.759707
0.758425
0.757007
0.755468
0.753823
0.752087
0.750274
0.748403
0.746494
0.744572
0.742668
0.740821
0.73907
0.737463
0.736043
0.734854
0.733931
0.733304
0.732992
0.732992
0.733304
0.733931
0.734854
0.736043
0.737463
0.73907
0.740821
0.742668
0.744572
0.746494
0.748403
0.750274
0.752087
0.753823
0.755468
0.757007
0.758425
0.759707
0.760839
0.761807
0.762597
0.763199
0.763604
0.763805
0.761827
0.761658
0.761318
0.760814
0.760156
0.759356
0.758425
0.757377
0.756222
0.75497
0.753628
0.752202
0.750696
0.749115
0.747467
0.745769
0.744043
0.742322
0.740647
0.73907
0.737644
0.736425
0.735464
0.734804
0.734472
0.734472
0.734804
0.735464
0.736425
0.737644
0.73907
0.740647
0.742322
0.744043
0.745769
0.747467
0.749115
0.750696
0.752202
0.753628
0.75497
0.756222
0.757377
0.758425
0.759356
0.760156
0.760814
0.761318
0.761658
0.761827
0.759594
0.759464
0.759202
0.758816
0.758314
0.757707
0.757007
0.756222
0.755359
0.754421
0.753407
0.752314
0.751136
0.749865
0.7485
0.747046
0.745515
0.743937
0.742352
0.740814
0.739388
0.738142
0.737143
0.736447
0.736095
0.736095
0.736447
0.737143
0.738142
0.739388
0.740814
0.742352
0.743937
0.745515
0.747046
0.7485
0.749865
0.751136
0.752314
0.753407
0.754421
0.755359
0.756222
0.757007
0.757707
0.758314
0.758816
0.759202
0.759464
0.759594
0.757133
0.757049
0.756878
0.756627
0.756303
0.755914
0.755468
0.75497
0.754421
0.753817
0.753149
0.752406
0.75157
0.750626
0.749559
0.748363
0.747045
0.745625
0.744143
0.742657
0.741238
0.739968
0.738931
0.7382
0.737828
0.737828
0.7382
0.738931
0.739968
0.741238
0.742657
0.744143
0.745625
0.747045
0.748363
0.749559
0.750626
0.75157
0.752406
0.753149
0.753817
0.754421
0.75497
0.755468
0.755914
0.756303
0.756627
0.756878
0.757049
0.757133
0.754486
0.754453
0.754383
0.75428
0.75415
0.753997
0.753823
0.753628
0.753407
0.753149
0.752838
0.752453
0.751969
0.75136
0.750602
0.749679
0.748587
0.74734
0.745975
0.74455
0.743146
0.741859
0.740787
0.74002
0.739627
0.739627
0.74002
0.740787
0.741859
0.743146
0.74455
0.745975
0.74734
0.748587
0.749679
0.750602
0.75136
0.751969
0.752453
0.752838
0.753149
0.753407
0.753628
0.753823
0.753997
0.75415
0.75428
0.754383
0.754453
0.754486
0.751703
0.751724
0.751761
0.751815
0.751889
0.75198
0.752087
0.752202
0.752314
0.752406
0.752453
0.752428
0.752298
0.752028
0.751585
0.750942
0.750087
0.749025
0.747789
0.746438
0.745059
0.743759
0.742654
0.741854
0.74144
0.74144
0.741854
0.742654
0.743759
0.745059
0.746438
0.747789
0.749025
0.750087
0.750942
0.751585
0.752028
0.752298
0.752428
0.752453
0.752406
0.752314
0.752202
0.752087
0.75198
0.751889
0.751815
0.751761
0.751724
0.751703
0.748846
0.748922
0.749067
0.749279
0.749555
0.74989
0.750274
0.750696
0.751136
0.75157
0.751969
0.752298
0.752517
0.752583
0.752455
0.752097
0.751486
0.750619
0.749523
0.748255
0.746909
0.745602
0.744469
0.743635
0.743202
0.743202
0.743635
0.744469
0.745602
0.746909
0.748255
0.749523
0.750619
0.751486
0.752097
0.752455
0.752583
0.752517
0.752298
0.751969
0.75157
0.751136
0.750696
0.750274
0.74989
0.749555
0.749279
0.749067
0.748922
0.748846
0.745982
0.746111
0.746358
0.74672
0.747189
0.747755
0.748403
0.749115
0.749865
0.750626
0.75136
0.752028
0.752583
0.752976
0.753158
0.753082
0.752717
0.75205
0.751101
0.749925
0.748617
0.747309
0.74615
0.745285
0.744833
0.744833
0.745285
0.74615
0.747309
0.748617
0.749925
0.751101
0.75205
0.752717
0.753082
0.753158
0.752976
0.752583
0.752028
0.75136
0.750626
0.749865
0.749115
0.748403
0.747755
0.747189
0.74672
0.746358
0.746111
0.745982
0.743182
0.743358
0.743698
0.744194
0.744836
0.745609
0.746494
0.747467
0.7485
0.749559
0.750602
0.751585
0.752455
0.753158
0.753636
0.753834
0.75371
0.753243
0.752442
0.751361
0.750097
0.74879
0.747605
0.74671
0.746238
0.746238
0.74671
0.747605
0.74879
0.750097
0.751361
0.752442
0.753243
0.75371
0.753834
0.753636
0.753158
0.752455
0.751585
0.750602
0.749559
0.7485
0.747467
0.746494
0.745609
0.744836
0.744194
0.743698
0.743358
0.743182
0.740515
0.74073
0.741145
0.741753
0.742539
0.743486
0.744572
0.745769
0.747046
0.748363
0.749679
0.750942
0.752097
0.753082
0.753834
0.754289
0.754394
0.754118
0.753461
0.752472
0.75125
0.749943
0.748734
0.747806
0.747315
0.747315
0.747806
0.748734
0.749943
0.75125
0.752472
0.753461
0.754118
0.754394
0.754289
0.753834
0.753082
0.752097
0.750942
0.749679
0.748363
0.747046
0.745769
0.744572
0.743486
0.742539
0.741753
0.741145
0.74073
0.740515
0.738039
0.738283
0.738756
0.739448
0.740344
0.741426
0.742668
0.744043
0.745515
0.747045
0.748587
0.750087
0.751486
0.752717
0.75371
0.754394
0.754705
0.754602
0.754076
0.75317
0.751983
0.750671
0.749431
0.748469
0.747956
0.747956
0.748469
0.749431
0.750671
0.751983
0.75317
0.754076
0.754602
0.754705
0.754394
0.75371
0.752717
0.751486
0.750087
0.748587
0.747045
0.745515
0.744043
0.742668
0.741426
0.740344
0.739448
0.738756
0.738283
0.738039
0.735803
0.736067
0.736578
0.737326
0.738296
0.739469
0.740821
0.742322
0.743937
0.745625
0.74734
0.749025
0.750619
0.75205
0.753243
0.754118
0.754602
0.754643
0.754226
0.753384
0.752217
0.750889
0.74961
0.748608
0.74807
0.74807
0.748608
0.74961
0.750889
0.752217
0.753384
0.754226
0.754643
0.754602
0.754118
0.753243
0.75205
0.750619
0.749025
0.74734
0.745625
0.743937
0.742322
0.740821
0.739469
0.738296
0.737326
0.736578
0.736067
0.735803
0.733843
0.734117
0.734647
0.735423
0.736433
0.737656
0.73907
0.740647
0.742352
0.744143
0.745975
0.747789
0.749523
0.751101
0.752442
0.753461
0.754076
0.754226
0.753884
0.75308
0.751913
0.750552
0.749224
0.748173
0.747607
0.747607
0.748173
0.749224
0.750552
0.751913
0.75308
0.753884
0.754226
0.754076
0.753461
0.752442
0.751101
0.749523
0.747789
0.745975
0.744143
0.742352
0.740647
0.73907
0.737656
0.736433
0.735423
0.734647
0.734117
0.733843
0.732177
0.732453
0.732987
0.733769
0.734788
0.736027
0.737463
0.73907
0.740814
0.742657
0.74455
0.746438
0.748255
0.749925
0.751361
0.752472
0.75317
0.753384
0.75308
0.752283
0.751089
0.749676
0.748285
0.747177
0.746579
0.746579
0.747177
0.748285
0.749676
0.751089
0.752283
0.75308
0.753384
0.75317
0.752472
0.751361
0.749925
0.748255
0.746438
0.74455
0.742657
0.740814
0.73907
0.737463
0.736027
0.734788
0.733769
0.732987
0.732453
0.732177
0.730811
0.731084
0.731611
0.732383
0.73339
0.734617
0.736043
0.737644
0.739388
0.741238
0.743146
0.745059
0.746909
0.748617
0.750097
0.75125
0.751983
0.752217
0.751913
0.751089
0.749844
0.74836
0.746892
0.74572
0.745085
0.745085
0.74572
0.746892
0.74836
0.749844
0.751089
0.751913
0.752217
0.751983
0.75125
0.750097
0.748617
0.746909
0.745059
0.743146
0.741238
0.739388
0.737644
0.736043
0.734617
0.73339
0.732383
0.731611
0.731084
0.730811
0.729744
0.73001
0.730523
0.731275
0.732258
0.733457
0.734854
0.736425
0.738142
0.739968
0.741859
0.743759
0.745602
0.747309
0.74879
0.749943
0.750671
0.750889
0.750552
0.749676
0.74836
0.746794
0.745242
0.744002
0.74333
0.74333
0.744002
0.745242
0.746794
0.74836
0.749676
0.750552
0.750889
0.750671
0.749943
0.74879
0.747309
0.745602
0.743759
0.741859
0.739968
0.738142
0.736425
0.734854
0.733457
0.732258
0.731275
0.730523
0.73001
0.729744
0.728962
0.729221
0.729719
0.73045
0.731405
0.732571
0.733931
0.735464
0.737143
0.738931
0.740787
0.742654
0.744469
0.74615
0.747605
0.748734
0.749431
0.74961
0.749224
0.748285
0.746892
0.745242
0.743611
0.742306
0.7416
0.7416
0.742306
0.743611
0.745242
0.746892
0.748285
0.749224
0.74961
0.749431
0.748734
0.747605
0.74615
0.744469
0.742654
0.740787
0.738931
0.737143
0.735464
0.733931
0.732571
0.731405
0.73045
0.729719
0.729221
0.728962
0.728455
0.728708
0.729193
0.729906
0.730837
0.731975
0.733304
0.734804
0.736447
0.7382
0.74002
0.741854
0.743635
0.745285
0.74671
0.747806
0.748469
0.748608
0.748173
0.747177
0.74572
0.744002
0.742306
0.740952
0.740219
0.740219
0.740952
0.742306
0.744002
0.74572
0.747177
0.748173
0.748608
0.748469
0.747806
0.74671
0.745285
0.743635
0.741854
0.74002
0.7382
0.736447
0.734804
0.733304
0.731975
0.730837
0.729906
0.729193
0.728708
0.728455
0.728209
0.728459
0.728938
0.72964
0.730559
0.731681
0.732992
0.734472
0.736095
0.737828
0.739627
0.74144
0.743202
0.744833
0.746238
0.747315
0.747956
0.74807
0.747607
0.746579
0.745085
0.74333
0.7416
0.740219
0.73947
0.73947
0.740219
0.7416
0.74333
0.745085
0.746579
0.747607
0.74807
0.747956
0.747315
0.746238
0.744833
0.743202
0.74144
0.739627
0.737828
0.736095
0.734472
0.732992
0.731681
0.730559
0.72964
0.728938
0.728459
0.728209
0.728209
0.728459
0.728938
0.72964
0.730559
0.731681
0.732992
0.734472
0.736095
0.737828
0.739627
0.74144
0.743202
0.744833
0.746238
0.747315
0.747956
0.74807
0.747607
0.746579
0.745085
0.74333
0.7416
0.740219
0.73947
0.73947
0.740219
0.7416
0.74333
0.745085
0.746579
0.747607
0.74807
0.747956
0.747315
0.746238
0.744833
0.743202
0.74144
0.739627
0.737828
0.736095
0.734472
0.732992
0.731681
0.730559
0.72964
0.728938
0.728459
0.728209
0.728455
0.728708
0.729193
0.729906
0.730837
0.731975
0.733304
0.734804
0.736447
0.7382
0.74002
0.741854
0.743635
0.745285
0.74671
0.747806
0.748469
0.748608
0.748173
0.747177
0.74572
0.744002
0.742306
0.740952
0.740219
0.740219
0.740952
0.742306
0.744002
0.74572
0.747177
0.748173
0.748608
0.748469
0.747806
0.74671
0.745285
0.743635
0.741854
0.74002
0.7382
0.736447
0.734804
0.733304
0.731975
0.730837
0.729906
0.729193
0.728708
0.728455
0.728962
0.729221
0.729719
0.73045
0.731405
0.732571
0.733931
0.735464
0.737143
0.738931
0.740787
0.742654
0.744469
0.74615
0.747605
0.748734
0.749431
0.74961
0.749224
0.748285
0.746892
0.745242
0.743611
0.742306
0.7416
0.7416
0.742306
0.743611
0.745242
0.746892
0.748285
0.749224
0.74961
0.749431
0.748734
0.747605
0.74615
0.744469
0.742654
0.740787
0.738931
0.737143
0.735464
0.733931
0.732571
0.731405
0.73045
0.729719
0.729221
0.728962
0.729744
0.73001
0.730523
0.731275
0.732258
0.733457
0.734854
0.736425
0.738142
0.739968
0.741859
0.743759
0.745602
0.747309
0.74879
0.749943
0.750671
0.750889
0.750552
0.749676
0.74836
0.746794
0.745242
0.744002
0.74333
0.74333
0.744002
0.745242
0.746794
0.74836
0.749676
0.750552
0.750889
0.750671
0.749943
0.74879
0.747309
0.745602
0.743759
0.741859
0.739968
0.738142
0.736425
0.734854
0.733457
0.732258
0.731275
0.730523
0.73001
0.729744
0.730811
0.731084
0.731611
0.732383
0.73339
0.734617
0.736043
0.737644
0.739388
0.741238
0.743146
0.745059
0.746909
0.748617
0.750097
0.75125
0.751983
0.752217
0.751913
0.751089
0.749844
0.74836
0.746892
0.74572
0.745085
0.745085
0.74572
0.746892
0.74836
0.749844
0.751089
0.751913
0.752217
0.751983
0.75125
0.750097
0.748617
0.746909
0.745059
0.743146
0.741238
0.739388
0.737644
0.736043
0.734617
0.73339
0.732383
0.731611
0.731084
0.730811
0.732177
0.732453
0.732987
0.733769
0.734788
0.736027
0.737463
0.73907
0.740814
0.742657
0.74455
0.746438
0.748255
0.749925
0.751361
0.752472
0.75317
0.753384
0.75308
0.752283
0.751089
0.749676
0.748285
0.747177
0.746579
0.746579
0.747177
0.748285
0.749676
0.751089
0.752283
0.75308
0.753384
0.75317
0.752472
0.751361
0.749925
0.748255
0.746438
0.74455
0.742657
0.740814
0.73907
0.737463
0.736027
0.734788
0.733769
0.732987
0.732453
0.732177
0.733843
0.734117
0.734647
0.735423
0.736433
0.737656
0.73907
0.740647
0.742352
0.744143
0.745975
0.747789
0.749523
0.751101
0.752442
0.753461
0.754076
0.754226
0.753884
0.75308
0.751913
0.750552
0.749224
0.748173
0.747607
0.747607
0.748173
0.749224
0.750552
0.751913
0.75308
0.753884
0.754226
0.754076
0.753461
0.752442
0.751101
0.749523
0.747789
0.745975
0.744143
0.742352
0.740647
0.73907
0.737656
0.736433
0.735423
0.734647
0.734117
0.733843
0.735803
0.736067
0.736578
0.737326
0.738296
0.739469
0.740821
0.742322
0.743937
0.745625
0.74734
0.749025
0.750619
0.75205
0.753243
0.754118
0.754602
0.754643
0.754226
0.753384
0.752217
0.750889
0.74961
0.748608
0.74807
0.74807
0.748608
0.74961
0.750889
0.752217
0.753384
0.754226
0.754643
0.754602
0.754118
0.753243
0.75205
0.750619
0.749025
0.74734
0.745625
0.743937
0.742322
0.740821
0.739469
0.738296
0.737326
0.736578
0.736067
0.735803
0.738039
0.738283
0.738756
0.739448
0.740344
0.741426
0.742668
0.744043
0.745515
0.747045
0.748587
0.750087
0.751486
0.752717
0.75371
0.754394
0.754705
0.754602
0.754076
0.75317
0.751983
0.750671
0.749431
0.748469
0.747956
0.747956
0.748469
0.749431
0.750671
0.751983
0.75317
0.754076
0.754602
0.754705
0.754394
0.75371
0.752717
0.751486
0.750087
0.748587
0.747045
0.745515
0.744043
0.742668
0.741426
0.740344
0.739448
0.738756
0.738283
0.738039
0.740515
0.74073
0.741145
0.741753
0.742539
0.743486
0.744572
0.745769
0.747046
0.748363
0.749679
0.750942
0.752097
0.753082
0.753834
0.754289
0.754394
0.754118
0.753461
0.752472
0.75125
0.749943
0.748734
0.747806
0.747315
0.747315
0.747806
0.748734
0.749943
0.75125
0.752472
0.753461
0.754118
0.754394
0.754289
0.753834
0.753082
0.752097
0.750942
0.749679
0.748363
0.747046
0.745769
0.744572
0.743486
0.742539
0.741753
0.741145
0.74073
0.740515
0.743182
0.743358
0.743698
0.744194
0.744836
0.745609
0.746494
0.747467
0.7485
0.749559
0.750602
0.751585
0.752455
0.753158
0.753636
0.753834
0.75371
0.753243
0.752442
0.751361
0.750097
0.74879
0.747605
0.74671
0.746238
0.746238
0.74671
0.747605
0.74879
0.750097
0.751361
0.752442
0.753243
0.75371
0.753834
0.753636
0.753158
0.752455
0.751585
0.750602
0.749559
0.7485
0.747467
0.746494
0.745609
0.744836
0.744194
0.743698
0.743358
0.743182
0.745982
0.746111
0.746358
0.74672
0.747189
0.747755
0.748403
0.749115
0.749865
0.750626
0.75136
0.752028
0.752583
0.752976
0.753158
0.753082
0.752717
0.75205
0.751101
0.749925
0.748617
0.747309
0.74615
0.745285
0.744833
0.744833
0.745285
0.74615
0.747309
0.748617
0.749925
0.751101
0.75205
0.752717
0.753082
0.753158
0.752976
0.752583
0.752028
0.75136
0.750626
0.749865
0.749115
0.748403
0.747755
0.747189
0.74672
0.746358
0.746111
0.745982
0.748846
0.748922
0.749067
0.749279
0.749555
0.74989
0.750274
0.750696
0.751136
0.75157
0.751969
0.752298
0.752517
0.752583
0.752455
0.752097
0.751486
0.750619
0.749523
0.748255
0.746909
0.745602
0.744469
0.743635
0.743202
0.743202
0.743635
0.744469
0.745602
0.746909
0.748255
0.749523
0.750619
0.751486
0.752097
0.752455
0.752583
0.752517
0.752298
0.751969
0.75157
0.751136
0.750696
0.750274
0.74989
0.749555
0.749279
0.749067
0.748922
0.748846
0.751703
0.751724
0.751761
0.751815
0.751889
0.75198
0.752087
0.752202
0.752314
0.752406
0.752453
0.752428
0.752298
0.752028
0.751585
0.750942
0.750087
0.749025
0.747789
0.746438
0.745059
0.743759
0.742654
0.741854
0.74144
0.74144
0.741854
0.742654
0.743759
0.745059
0.746438
0.747789
0.749025
0.750087
0.750942
0.751585
0.752028
0.752298
0.752428
0.752453
0.752406
0.752314
0.752202
0.752087
0.75198
0.751889
0.751815
0.751761
0.751724
0.751703
0.754486
0.754453
0.754383
0.75428
0.75415
0.753997
0.753823
0.753628
0.753407
0.753149
0.752838
0.752453
0.751969
0.75136
0.750602
0.749679
0.748587
0.74734
0.745975
0.74455
0.743146
0.741859
0.740787
0.74002
0.739627
0.739627
0.74002
0.740787
0.741859
0.743146
0.74455
0.745975
0.74734
0.748587
0.749679
0.750602
0.75136
0.751969
0.752453
0.752838
0.753149
0.753407
0.753628
0.753823
0.753997
0.75415
0.75428
0.754383
0.754453
0.754486
0.757133
0.757049
0.756878
0.756627
0.756303
0.755914
0.755468
0.75497
0.754421
0.753817
0.753149
0.752406
0.75157
0.750626
0.749559
0.748363
0.747045
0.745625
0.744143
0.742657
0.741238
0.739968
0.738931
0.7382
0.737828
0.737828
0.7382
0.738931
0.739968
0.741238
0.742657
0.744143
0.745625
0.747045
0.748363
0.749559
0.750626
0.75157
0.752406
0.753149
0.753817
0.754421
0.75497
0.755468
0.755914
0.756303
0.756627
0.756878
0.757049
0.757133
0.759594
0.759464
0.759202
0.758816
0.758314
0.757707
0.757007
0.756222
0.755359
0.754421
0.753407
0.752314
0.751136
0.749865
0.7485
0.747046
0.745515
0.743937
0.742352
0.740814
0.739388
0.738142
0.737143
0.736447
0.736095
0.736095
0.736447
0.737143
0.738142
0.739388
0.740814
0.742352
0.743937
0.745515
0.747046
0.7485
0.749865
0.751136
0.752314
0.753407
0.754421
0.755359
0.756222
0.757007
0.757707
0.758314
0.758816
0.759202
0.759464
0.759594
0.761827
0.761658
0.761318
0.760814
0.760156
0.759356
0.758425
0.757377
0.756222
0.75497
0.753628
0.752202
0.750696
0.749115
0.747467
0.745769
0.744043
0.742322
0.740647
0.73907
0.737644
0.736425
0.735464
0.734804
0.734472
0.734472
0.734804
0.735464
0.736425
0.737644
0.73907
0.740647
0.742322
0.744043
0.745769
0.747467
0.749115
0.750696
0.752202
0.753628
0.75497
0.756222
0.757377
0.758425
0.759356
0.760156
0.760814
0.761318
0.761658
0.761827
0.763805
0.763604
0.763199
0.762597
0.761807
0.760839
0.759707
0.758425
0.757007
0.755468
0.753823
0.752087
0.750274
0.748403
0.746494
0.744572
0.742668
0.740821
0.73907
0.737463
0.736043
0.734854
0.733931
0.733304
0.732992
0.732992
0.733304
0.733931
0.734854
0.736043
0.737463
0.73907
0.740821
0.742668
0.744572
0.746494
0.748403
0.750274
0.752087
0.753823
0.755468
0.757007
0.758425
0.759707
0.760839
0.761807
0.762597
0.763199
0.763604
0.763805
0.765508
0.765282
0.764826
0.764146
0.763248
0.762142
0.760839
0.759356
0.757707
0.755914
0.753997
0.75198
0.74989
0.747755
0.745609
0.743486
0.741426
0.739469
0.737656
0.736027
0.734617
0.733457
0.732571
0.731975
0.731681
0.731681
0.731975
0.732571
0.733457
0.734617
0.736027
0.737656
0.739469
0.741426
0.743486
0.745609
0.747755
0.74989
0.75198
0.753997
0.755914
0.757707
0.759356
0.760839
0.762142
0.763248
0.764146
0.764826
0.765282
0.765508
0.766927
0.766682
0.766188
0.765447
0.764465
0.763248
0.761807
0.760156
0.758314
0.756303
0.75415
0.751889
0.749555
0.747189
0.744836
0.742539
0.740344
0.738296
0.736433
0.734788
0.73339
0.732258
0.731405
0.730837
0.730559
0.730559
0.730837
0.731405
0.732258
0.73339
0.734788
0.736433
0.738296
0.740344
0.742539
0.744836
0.747189
0.749555
0.751889
0.75415
0.756303
0.758314
0.760156
0.761807
0.763248
0.764465
0.765447
0.766188
0.766682
0.766927
0.768058
0.7678
0.767278
0.766493
0.765447
0.764146
0.762597
0.760814
0.758816
0.756627
0.75428
0.751815
0.749279
0.74672
0.744194
0.741753
0.739448
0.737326
0.735423
0.733769
0.732383
0.731275
0.73045
0.729906
0.72964
0.72964
0.729906
0.73045
0.731275
0.732383
0.733769
0.735423
0.737326
0.739448
0.741753
0.744194
0.74672
0.749279
0.751815
0.75428
0.756627
0.758816
0.760814
0.762597
0.764146
0.765447
0.766493
0.767278
0.7678
0.768058
0.768902
0.768634
0.768094
0.767278
0.766188
0.764826
0.763199
0.761318
0.759202
0.756878
0.754383
0.751761
0.749067
0.746358
0.743698
0.741145
0.738756
0.736578
0.734647
0.732987
0.731611
0.730523
0.729719
0.729193
0.728938
0.728938
0.729193
0.729719
0.730523
0.731611
0.732987
0.734647
0.736578
0.738756
0.741145
0.743698
0.746358
0.749067
0.751761
0.754383
0.756878
0.759202
0.761318
0.763199
0.764826
0.766188
0.767278
0.768094
0.768634
0.768902
0.76946
0.769187
0.768634
0.7678
0.766682
0.765282
0.763604
0.761658
0.759464
0.757049
0.754453
0.751724
0.748922
0.746111
0.743358
0.74073
0.738283
0.736067
0.734117
0.732453
0.731084
0.73001
0.729221
0.728708
0.728459
0.728459
0.728708
0.729221
0.73001
0.731084
0.732453
0.734117
0.736067
0.738283
0.74073
0.743358
0.746111
0.748922
0.751724
0.754453
0.757049
0.759464
0.761658
0.763604
0.765282
0.766682
0.7678
0.768634
0.769187
0.76946
0.769735
0.76946
0.768902
0.768058
0.766927
0.765508
0.763805
0.761827
0.759594
0.757133
0.754486
0.751703
0.748846
0.745982
0.743182
0.740515
0.738039
0.735803
0.733843
0.732177
0.730811
0.729744
0.728962
0.728455
0.728209
0.728209
0.728455
0.728962
0.729744
0.730811
0.732177
0.733843
0.735803
0.738039
0.740515
0.743182
0.745982
0.748846
0.751703
0.754486
0.757133
0.759594
0.761827
0.763805
0.765508
0.766927
0.768058
0.768902
0.76946
0.769735
SCALARS HU float 1
LOOKUP_TABLE default
0.0047919
0.0142702
0.0234968
0.032315
0.0405764
0.0481444
0.0548977
0.060735
0.0655781
0.0693746
0.0721001
0.0737563
0.074364
0.0739544
0.0725595
0.0702019
0.0668865
0.062598
0.0573063
0.0509806
0.0436093
0.0352247
0.025925
0.0158864
0.00536181
-0.00536181
-0.0158864
-0.025925
-0.0352247
-0.0436093
-0.0509806
-0.0573063
-0.062598
-0.0668865
-0.0702019
-0.0725595
-0.0739544
-0.074364
-0.0737563
-0.0721001
-0.0693746
-0.0655781
-0.060735
-0.0548977
-0.0481444
-0.0405764
-0.032315
-0.0234968
-0.0142702
-0.0047919
0.00476754
0.014199
0.0233839
0.0321688
0.0404086
0.0479692
0.0547324
0.0605981
0.0654886
0.0693506
0.0721562
0.0739018
0.0746016
0.0742794
0.0729597
0.0706586
0.0673765
0.0630962
0.0577881
0.0514238
0.043995
0.0355385
0.026156
0.0160278
0.00540957
-0.00540957
-0.0160278
-0.026156
-0.0355385
-0.043995
-0.0514238
-0.0577881
-0.0630962
-0.0673765
-0.0706586
-0.0729597
-0.0742794
-0.0746016
-0.0739018
-0.0721562
-0.0693506
-0.0654886
-0.0605981
-0.0547324
-0.0479692
-0.0404086
-0.0321688
-0.0233839
-0.014199
-0.00476754
0.00472037
0.0140616
0.0231662
0.0318875
0.0400863
0.0476348
0.0544188
0.060342
0.0653269
0.069318
0.0722807
0.0742015
0.0750814
0.0749299
0.0737571
0.0715664
0.0683497
0.0640856
0.0587453
0.0523042
0.0447619
0.0361625
0.0266159
0.0163094
0.00550471
-0.00550471
-0.0163094
-0.0266159
-0.0361625
-0.0447619
-0.0523042
-0.0587453
-0.0640856
-0.0683497
-0.0715664
-0.0737571
-0.0749299
-0.0750814
-0.0742015
-0.0722807
-0.069318
-0.0653269
-0.060342
-0.0544188
-0.0476348
-0.0400863
-0.0318875
-0.0231662
-0.0140616
-0.00472037
0.00465377
0.0138671
0.022859
0.031492
0.0396361
0.0471714
0.0539905
0.0600007
0.0651256
0.0693054
0.0724968
0.0746711
0.0758114
0.0759063
0.0749458
0.0729155
0.0697939
0.0655539
0.0601664
0.0536132
0.0459031
0.0370921
0.0273017
0.0167296
0.00564663
-0.00564663
-0.0167296
-0.0273017
-0.0370921
-0.0459031
-0.0536132
-0.0601664
-0.0655539
-0.0697939
-0.0729155
-0.0749458
-0.0759063
-0.0758114
-0.0746711
-0.0724968
-0.0693054
-0.0651256
-0.0600007
-0.0539905
-0.0471714
-0.0396361
-0.031492
-0.022859
-0.0138671
-0.00465377
0.00457219
0.0136298
0.0224853
0.0310136
0.0390962
0.046623
0.0534944
0.0596223
0.0649301
0.0693531
0.0728358
0.075332
0.0768018
0.0772088
0.0765175
0.074691
0.0716919
0.0674832
0.0620358
0.0553375
0.047409
0.0383207
0.0282091
0.0172861
0.00583478
-0.00583478
-0.0172861
-0.0282091
-0.0383207
-0.047409
-0.0553375
-0.0620358
-0.0674832
-0.0716919
-0.074691
-0.0765175
-0.0772088
-0.0768018
-0.075332
-0.0728358
-0.0693531
-0.0649301
-0.0596223
-0.0534944
-0.046623
-0.0390962
-0.0310136
-0.0224853
-0.0136298
-0.00457219
0.00448197
0.0133675
0.0220748
0.0304926
0.0385156
0.0460453
0.0529904
0.0592666
0.0647972
0.0695097
0.073336
0.07621
0.078065
0.078837
0.0784612
0.0768754
0.0740216
0.0698517
0.0643334
0.0574608
0.0492671
0.0398395
0.0293328
0.0179759
0.00606813
-0.00606813
-0.0179759
-0.0293328
-0.0398395
-0.0492671
-0.0574608
-0.0643334
-0.0698517
-0.0740216
-0.0768754
-0.0784612
-0.078837
-0.078065
-0.07621
-0.073336
-0.0695097
-0.0647972
-0.0592666
-0.0529904
-0.0460453
-0.0385156
-0.0304926
-0.0220748
-0.0133675
-0.00448197
0.00439056
0.0131029
0.0216632
0.0299768
0.0379526
0.0455036
0.0525467
0.0590019
0.0647897
0.0698302
0.0740402
0.0773324
0.0796145
0.0807901
0.080765
0.0794482
0.076759
0.072634
0.0670361
0.0599635
0.0514624
0.0416378
0.0306655
0.0187953
0.00634543
-0.00634543
-0.0187953
-0.0306655
-0.0416378
-0.0514624
-0.0599635
-0.0670361
-0.072634
-0.076759
-0.0794482
-0.080765
-0.0807901
-0.0796145
-0.0773324
-0.0740402
-0.0698302
-0.0647897
-0.0590019
-0.0525467
-0.0455036
-0.0379526
-0.0299768
-0.0216632
-0.0131029
-0.00439056
0.00430638
0.0128605
0.0212912
0.0295202
0.0374714
0.045069
0.0522379
0.0589005
0.0649746
0.0703714
0.0749924
0.0787292
0.0814629
0.0830677
0.0834162
0.0823882
0.0798776
0.075803
0.0701182
0.062824
0.0539776
0.0437034
0.0321994
0.0197396
0.00666534
-0.00666534
-0.0197396
-0.0321994
-0.0437034
-0.0539776
-0.062824
-0.0701182
-0.075803
-0.0798776
-0.0823882
-0.0834162
-0.0830677
-0.0814629
-0.0787292
-0.0749924
-0.0703714
-0.0649746
-0.0589005
-0.0522379
-0.045069
-0.0374714
-0.0295202
-0.0212912
-0.0128605
-0.00430638
0.00423862
0.0126674
0.0210012
0.0291791
0.0371383
0.0448145
0.0521384
0.0590347
0.0654175
0.0711887
0.0762349
0.0804277
0.0836239
0.0856682
0.0864021
0.0856742
0.0833511
0.07933
0.0735528
0.0660185
0.0567939
0.0460218
0.0339248
0.0208035
0.00702625
-0.00702625
-0.0208035
-0.0339248
-0.0460218
-0.0567939
-0.0660185
-0.0735528
-0.07933
-0.0833511
-0.0856742
-0.0864021
-0.0856682
-0.0836239
-0.0804277
-0.0762349
-0.0711887
-0.0654175
-0.0590347
-0.0521384
-0.0448145
-0.0371383
-0.0291791
-0.0210012
-0.0126674
-0.00423862
0.00419628
0.0125496
0.0208355
0.0290078
0.0370175
0.0448087
0.0523183
0.0594712
0.066178
0.0723317
0.0778055
0.0824532
0.0861085
0.0885905
0.0897103
0.0892854
0.0871531
0.0831867
0.0773118
0.0695217
0.0598902
0.0485773
0.0358307
0.0219806
0.00742585
-0.00742585
-0.0219806
-0.0358307
-0.0485773
-0.0598902
-0.0695217
-0.0773118
-0.0831867
-0.0871531
-0.0892854
-0.0897103
-0.0885905
-0.0861085
-0.0824532
-0.0778055
-0.0723317
-0.066178
-0.0594712
-0.0523183
-0.0448087
-0.0370175
-0.0290078
-0.0208355
-0.0125496
-0.00419628
0.00418733
0.012531
0.0208312
0.0290551
0.037164
0.0451111
0.0528365
0.0602656
0.0673054
0.0738409
0.0797349
0.0848246
0.088925
0.0918316
0.0933283
0.0932013
0.0912579
0.0873445
0.0813662
0.0733072
0.0632438
0.0513518
0.0379043
0.0232633
0.00786198
-0.00786198
-0.0232633
-0.0379043
-0.0513518
-0.0632438
-0.0733072
-0.0813662
-0.0873445
-0.0912579
-0.0932013
-0.0933283
-0.0918316
-0.088925
-0.0848246
-0.0797349
-0.0738409
-0.0673054
-0.0602656
-0.0528365
-0.0451111
-0.037164
-0.0290551
-0.0208312
-0.012531
-0.00418733
0.004218
0.0126288
0.0210156
0.0293558
0.0376194
0.0457647
0.0537354
0.061457
0.0688332
0.0757441
0.0820422
0.0875534
0.0920763
0.0953865
0.0972426
0.0974015
0.0956399
0.0917742
0.0856865
0.0773463
0.0668295
0.0543248
0.0401309
0.0246427
0.00833115
-0.00833115
-0.0246427
-0.0401309
-0.0543248
-0.0668295
-0.0773463
-0.0856865
-0.0917742
-0.0956399
-0.0974015
-0.0972426
-0.0953865
-0.0920763
-0.0875534
-0.0820422
-0.0757441
-0.0688332
-0.061457
-0.0537354
-0.0457647
-0.0376194
-0.0293558
-0.0210156
-0.0126288
-0.004218
0.00429124
0.0128528
0.0214037
0.0299288
0.0384037
0.0467907
0.0550353
0.0630631
0.0707763
0.0780507
0.0847333
0.0906402
0.0955577
0.099244
0.101436
0.101864
0.100271
0.0964455
0.0902402
0.0816078
0.0706189
0.0574727
0.0424924
0.0261076
0.00883015
-0.00883015
-0.0261076
-0.0424924
-0.0574727
-0.0706189
-0.0816078
-0.0902402
-0.0964455
-0.100271
-0.101864
-0.101436
-0.099244
-0.0955577
-0.0906402
-0.0847333
-0.0780507
-0.0707763
-0.0630631
-0.0550353
-0.0467907
-0.0384037
-0.0299288
-0.0214037
-0.0128528
-0.00429124
0.00440751
0.0132025
0.0219948
0.0307724
0.0395141
0.0481843
0.0567297
0.0650764
0.0731255
0.0807509
0.0877958
0.0940708
0.0993524
0.103385
0.105886
0.106561
0.105121
0.101323
0.0949913
0.0860557
0.0745787
0.0607669
0.0449672
0.0276447
0.00935402