# vtk DataFile Version 2.0
HPC Tutorials: Michael Bader, Kaveh Rahnema, Oliver Meister
ASCII
DATASET RECTILINEAR_GRID
DIMENSIONS 51 51 1
X_COORDINATES 51 float
0
0.02
0.04
0.06
0.08
0.1
0.12
0.14
0.16
0.18
0.2
0.22
0.24
0.26
0.28
0.3
0.32
0.34
0.36
0.38
0.4
0.42
0.44
0.46
0.48
0.5
0.52
0.54
0.56
0.58
0.6
0.62
0.64
0.66
0.68
0.7
0.72
0.74
0.76
0.78
0.8
0.82
0.84
0.86
0.88
0.9
0.92
0.94
0.96
0.98
1
Y_COORDINATES 51 float
0
0.02
0.04
0.06
0.08
0.1
0.12
0.14
0.16
0.18
0.2
0.22
0.24
0.26
0.28
0.3
0.32
0.34
0.36
0.38
0.4
0.42
0.44
0.46
0.48
0.5
0.52
0.54
0.56
0.58
0.6
0.62
0.64
0.66
0.68
0.7
0.72
0.74
0.76
0.78
0.8
0.82
0.84
0.86
0.88
0.9
0.92
0.94
0.96
0.98
1
Z_COORDINATES 1 float
0
CELL_DATA 2500
SCALARS H float 1
LOOKUP_TABLE default
0.7
0.700001
0.700008
0.700047
0.70019
0.700602
0.70157
0.7035
0.706842
0.711949
0.718958
0.727712
0.737815
0.748716
0.759844
0.770651
0.780719
0.789711
0.797478
0.803916
0.809092
0.813032
0.815884
0.817706
0.8186
0.8186
0.817706
0.815884
0.813032
0.809092
0.803916
0.797478
0.789711
0.780719
0.770651
0.759844
0.748716
0.737815
0.727712
0.718958
0.711949
0.706842
0.7035
0.70157
0.700602
0.70019
0.700047
0.700008
0.700001
0.7
0.700001
0.700008
0.700043
0.700173
0.700543
0.701417
0.703169
0.706216
0.710885
0.717278
0.725215
0.734312
0.744063
0.754007
0.763694
0.772834
0.781121
0.788481
0.79473
0.799984
0.804138
0.807399
0.809707
0.811241
0.811969
0.811969
0.811241
0.809707
0.807399
0.804138
0.799984
0.79473
0.788481
0.781121
0.772834
0.763694
0.754007
0.744063
0.734312
0.725215
0.717278
0.710885
0.706216
0.703169
0.701417
0.700543
0.700173
0.700043
0.700008
0.700001
0.700008
0.700043
0.700178
0.700575
0.701528
0.703464
0.706844
0.711973
0.718841
0.727051
0.736024
0.745128
0.753939
0.762114
0.769565
0.77613
0.781923
0.786804
0.791012
0.794378
0.797197
0.799286
0.800901
0.801898
0.802419
0.802419
0.801898
0.800901
0.799286
0.797197
0.794378
0.791012
0.786804
0.781923
0.77613
0.769565
0.762114
0.753939
0.745128
0.736024
0.727051
0.718841
0.711973
0.706844
0.703464
0.701528
0.700575
0.700178
0.700043
0.700008
0.700047
0.700173
0.700575
0.701577
0.703675
0.707424
0.713187
0.720891
0.729925
0.739445
0.748592
0.756892
0.764032
0.770088
0.775024
0.779134
0.782359
0.785085
0.787148
0.78896
0.790272
0.791435
0.792201
0.792787
0.793038
0.793038
0.792787
0.792201
0.791435
0.790272
0.78896
0.787148
0.785085
0.782359
0.779134
0.775024
0.770088
0.764032
0.756892
0.748592
0.739445
0.729925
0.720891
0.713187
0.707424
0.703675
0.701577
0.700575
0.700173
0.700047
0.70019
0.700543
0.701528
0.703675
0.707634
0.713871
0.722321
0.732224
0.74249
0.752027
0.760268
0.766897
0.7721
0.775935
0.778814
0.780741
0.782196
0.783039
0.783777
0.784154
0.784608
0.784846
0.785155
0.785301
0.785412
0.785412
0.785301
0.785155
0.784846
0.784608
0.784154
0.783777
0.783039
0.782196
0.780741
0.778814
0.775935
0.7721
0.766897
0.760268
0.752027
0.74249
0.732224
0.722321
0.713871
0.707634
0.703675
0.701528
0.700543
0.70019
0.700602
0.701417
0.703464
0.707424
0.713871
0.722819
0.733434
0.744422
0.754454
0.762853
0.769284
0.774017
0.777196
0.779307
0.78041
0.781007
0.780985
0.780885
0.780468
0.780228
0.77988
0.77976
0.779613
0.779597
0.779561
0.779561
0.779597
0.779613
0.77976
0.77988
0.780228
0.780468
0.780885
0.780985
0.781007
0.78041
0.779307
0.777196
0.774017
0.769284
0.762853
0.754454
0.744422
0.733434
0.722819
0.713871
0.707424
0.703464
0.701417
0.700602
0.70157
0.703169
0.706844
0.713187
0.722321
0.733434
0.745073
0.755668
0.764375
0.770811
0.775306
0.778097
0.779732
0.78034
0.780404
0.779843
0.779171
0.778177
0.77737
0.776495
0.775917
0.775406
0.775131
0.77493
0.77485
0.77485
0.77493
0.775131
0.775406
0.775917
0.776495
0.77737
0.778177
0.779171
0.779843
0.780404
0.78034
0.779732
0.778097
0.775306
0.770811
0.764375
0.755668
0.745073
0.733434
0.722321
0.713187
0.706844
0.703169
0.70157
0.7035
0.706216
0.711973
0.720891
0.732224
0.744422
0.755668
0.76487
0.77153
0.775987
0.778573
0.779903
0.780197
0.779917
0.77902
0.777965
0.776559
0.775303
0.773965
0.772936
0.772019
0.771395
0.770932
0.770659
0.770515
0.770515
0.770659
0.770932
0.771395
0.772019
0.772936
0.773965
0.775303
0.776559
0.777965
0.77902
0.779917
0.780197
0.779903
0.778573
0.775987
0.77153
0.76487
0.755668
0.744422
0.732224
0.720891
0.711973
0.706216
0.7035
0.706842
0.710885
0.718841
0.729925
0.74249
0.754454
0.764375
0.77153
0.776195
0.778759
0.779921
0.780007
0.779486
0.778363
0.77704
0.775328
0.773708
0.771945
0.77047
0.769096
0.76804
0.767203
0.766606
0.766221
0.766017
0.766017
0.766221
0.766606
0.767203
0.76804
0.769096
0.77047
0.771945
0.773708
0.775328
0.77704
0.778363
0.779486
0.780007
0.779921
0.778759
0.776195
0.77153
0.764375
0.754454
0.74249
0.729925
0.718841
0.710885
0.706842
0.711949
0.717278
0.727051
0.739445
0.752027
0.762853
0.770811
0.775987
0.778759
0.779911
0.779879
0.779185
0.777895
0.776372
0.774426
0.772512
0.770359
0.768453
0.766572
0.765016
0.763679
0.762622
0.761841
0.761293
0.761015
0.761015
0.761293
0.761841
0.762622
0.763679
0.765016
0.766572
0.768453
0.770359
0.772512
0.774426
0.776372
0.777895
0.779185
0.779879
0.779911
0.778759
0.775987
0.770811
0.762853
0.752027
0.739445
0.727051
0.717278
0.711949
0.718958
0.725215
0.736024
0.748592
0.760268
0.769284
0.775306
0.778573
0.779921
0.779879
0.779077
0.777652
0.775975
0.773847
0.771706
0.769211
0.766917
0.764505
0.762418
0.760468
0.758833
0.757479
0.756406
0.755676
0.75527
0.75527
0.755676
0.756406
0.757479
0.758833
0.760468
0.762418
0.764505
0.766917
0.769211
0.771706
0.773847
0.775975
0.777652
0.779077
0.779879
0.779921
0.778573
0.775306
0.769284
0.760268
0.748592
0.736024
0.725215
0.718958
0.727712
0.734312
0.745128
0.756892
0.766897
0.774017
0.778097
0.779903
0.780007
0.779185
0.777652
0.775844
0.77357
0.771254
0.768486
0.765868
0.762953
0.760344
0.757713
0.755423
0.753334
0.751565
0.750147
0.749117
0.74857
0.74857
0.749117
0.750147
0.751565
0.753334
0.755423
0.757713
0.760344
0.762953
0.765868
0.768486
0.771254
0.77357
0.775844
0.777652
0.779185
0.780007
0.779903
0.778097
0.774017
0.766897
0.756892
0.745128
0.734312
0.727712
0.737815
0.744063
0.753939
0.764032
0.7721
0.777196
0.779732
0.780197
0.779486
0.777895
0.775975
0.77357
0.77111
0.768142
0.76527
0.76193
0.75885
0.755533
0.752558
0.749619
0.747015
0.744683
0.742767
0.741379
0.740619
0.740619
0.741379
0.742767
0.744683
0.747015
0.749619
0.752558
0.755533
0.75885
0.76193
0.76527
0.768142
0.77111
0.77357
0.775975
0.777895
0.779486
0.780197
0.779732
0.777196
0.7721
0.764032
0.753939
0.744063
0.737815
0.748716
0.754007
0.762114
0.770088
0.775935
0.779307
0.78034
0.779917
0.778363
0.776372
0.773847
0.771254
0.768142
0.765078
0.761424
0.757952
0.754021
0.750379
0.74655
0.74302
0.739594
0.736553
0.733986
0.732106
0.731084
0.731084
0.732106
0.733986
0.736553
0.739594
0.74302
0.74655
0.750379
0.754021
0.757952
0.761424
0.765078
0.768142
0.771254
0.773847
0.776372
0.778363
0.779917
0.78034
0.779307
0.775935
0.770088
0.762114
0.754007
0.748716
0.759844
0.763694
0.769565
0.775024
0.778814
0.78041
0.780404
0.77902
0.77704
0.774426
0.771706
0.768486
0.76527
0.761424
0.757653
0.753245
0.74901
0.74434
0.739862
0.735251
0.730905
0.726874
0.723481
0.720985
0.719627
0.719627
0.720985
0.723481
0.726874
0.730905
0.735251
0.739862
0.74434
0.74901
0.753245
0.757653
0.761424
0.76527
0.768486
0.771706
0.774426
0.77704
0.77902
0.780404
0.78041
0.778814
0.775024
0.769565
0.763694
0.759844
0.770651
0.772834
0.77613
0.779134
0.780741
0.781007
0.779843
0.777965
0.775328
0.772512
0.769211
0.765868
0.76193
0.757952
0.753245
0.748542
0.743178
0.737823
0.732052
0.726329
0.720665
0.71545
0.711036
0.707787
0.706035
0.706035
0.707787
0.711036
0.71545
0.720665
0.726329
0.732052
0.737823
0.743178
0.748542
0.753245
0.757952
0.76193
0.765868
0.769211
0.772512
0.775328
0.777965
0.779843
0.781007
0.780741
0.779134
0.77613
0.772834
0.770651
0.780719
0.781121
0.781923
0.782359
0.782196
0.780985
0.779171
0.776559
0.773708
0.770359
0.766917
0.762953
0.75885
0.754021
0.74901
0.743178
0.737116
0.730348
0.723329
0.716029
0.708852
0.702228
0.696603
0.692512
0.690295
0.690295
0.692512
0.696603
0.702228
0.708852
0.716029
0.723329
0.730348
0.737116
0.743178
0.74901
0.754021
0.75885
0.762953
0.766917
0.770359
0.773708
0.776559
0.779171
0.780985
0.782196
0.782359
0.781923
0.781121
0.780719
0.789711
0.788481
0.786804
0.785085
0.783039
0.780885
0.778177
0.775303
0.771945
0.768453
0.764505
0.760344
0.755533
0.750379
0.74434
0.737823
0.730348
0.722282
0.713544
0.704496
0.695606
0.687349
0.680446
0.675384
0.672682
0.672682
0.675384
0.680446
0.687349
0.695606
0.704496
0.713544
0.722282
0.730348
0.737823
0.74434
0.750379
0.755533
0.760344
0.764505
0.768453
0.771945
0.775303
0.778177
0.780885
0.783039
0.785085
0.786804
0.788481
0.789711
0.797478
0.79473
0.791012
0.787148
0.783777
0.780468
0.77737
0.773965
0.77047
0.766572
0.762418
0.757713
0.752558
0.74655
0.739862
0.732052
0.723329
0.713544
0.702972
0.692045
0.681222
0.671339
0.662996
0.656978
0.653737
0.653737
0.656978
0.662996
0.671339
0.681222
0.692045
0.702972
0.713544
0.723329
0.732052
0.739862
0.74655
0.752558
0.757713
0.762418
0.766572
0.77047
0.773965
0.77737
0.780468
0.783777
0.787148
0.791012
0.79473
0.797478
0.803916
0.799984
0.794378
0.78896
0.784154
0.780228
0.776495
0.772936
0.769096
0.765016
0.760468
0.755423
0.749619
0.74302
0.735251
0.726329
0.716029
0.704496
0.692045
0.679076
0.666435
0.654778
0.645091
0.638045
0.634294
0.634294
0.638045
0.645091
0.654778
0.666435
0.679076
0.692045
0.704496
0.716029
0.726329
0.735251
0.74302
0.749619
0.755423
0.760468
0.765016
0.769096
0.772936
0.776495
0.780228
0.784154
0.78896
0.794378
0.799984
0.803916
0.809092
0.804138
0.797197
0.790272
0.784608
0.77988
0.775917
0.772019
0.76804
0.763679
0.758833
0.753334
0.747015
0.739594
0.730905
0.720665
0.708852
0.695606
0.681222
0.666435
0.651898
0.63868
0.627614
0.619644
0.615376
0.615376
0.619644
0.627614
0.63868
0.651898
0.666435
0.681222
0.695606
0.708852
0.720665
0.730905
0.739594
0.747015
0.753334
0.758833
0.763679
0.76804
0.772019
0.775917
0.77988
0.784608
0.790272
0.797197
0.804138
0.809092
0.813032
0.807399
0.799286
0.791435
0.784846
0.77976
0.775406
0.771395
0.767203
0.762622
0.757479
0.751565
0.744683
0.736553
0.726874
0.71545
0.702228
0.687349
0.671339
0.654778
0.63868
0.623955
0.611729
0.602883
0.598171
0.598171
0.602883
0.611729
0.623955
0.63868
0.654778
0.671339
0.687349
0.702228
0.71545
0.726874
0.736553
0.744683
0.751565
0.757479
0.762622
0.767203
0.771395
0.775406
0.77976
0.784846
0.791435
0.799286
0.807399
0.813032
0.815884
0.809707
0.800901
0.792201
0.785155
0.779613
0.775131
0.770932
0.766606
0.761841
0.756406
0.750147
0.742767
0.733986
0.723481
0.711036
0.696603
0.680446
0.662996
0.645091
0.627614
0.611729
0.598496
0.58896
0.583869
0.583869
0.58896
0.598496
0.611729
0.627614
0.645091
0.662996
0.680446
0.696603
0.711036
0.723481
0.733986
0.742767
0.750147
0.756406
0.761841
0.766606
0.770932
0.775131
0.779613
0.785155
0.792201
0.800901
0.809707
0.815884
0.817706
0.811241
0.801898
0.792787
0.785301
0.779597
0.77493
0.770659
0.766221
0.761293
0.755676
0.749117
0.741379
0.732106
0.720985
0.707787
0.692512
0.675384
0.656978
0.638045
0.619644
0.602883
0.58896
0.578913
0.573556
0.573556
0.578913
0.58896
0.602883
0.619644
0.638045
0.656978
0.675384
0.692512
0.707787
0.720985
0.732106
0.741379
0.749117
0.755676
0.761293
0.766221
0.770659
0.77493
0.779597
0.785301
0.792787
0.801898
0.811241
0.817706
0.8186
0.811969
0.802419
0.793038
0.785412
0.779561
0.77485
0.770515
0.766017
0.761015
0.75527
0.74857
0.740619
0.731084
0.719627
0.706035
0.690295
0.672682
0.653737
0.634294
0.615376
0.598171
0.583869
0.573556
0.568054
0.568054
0.573556
0.583869
0.598171
0.615376
0.634294
0.653737
0.672682
0.690295
0.706035
0.719627
0.731084
0.740619
0.74857
0.75527
0.761015
0.766017
0.770515
0.77485
0.779561
0.785412
0.793038
0.802419
0.811969
0.8186
0.8186
0.811969
0.802419
0.793038
0.785412
0.779561
0.77485
0.770515
0.766017
0.761015
0.75527
0.74857
0.740619
0.731084
0.719627
0.706035
0.690295
0.672682
0.653737
0.634294
0.615376
0.598171
0.583869
0.573556
0.568054
0.568054
0.573556
0.583869
0.598171
0.615376
0.634294
0.653737
0.672682
0.690295
0.706035
0.719627
0.731084
0.740619
0.74857
0.75527
0.761015
0.766017
0.770515
0.77485
0.779561
0.785412
0.793038
0.802419
0.811969
0.8186
0.817706
0.811241
0.801898
0.792787
0.785301
0.779597
0.77493
0.770659
0.766221
0.761293
0.755676
0.749117
0.741379
0.732106
0.720985
0.707787
0.692512
0.675384
0.656978
0.638045
0.619644
0.602883
0.58896
0.578913
0.573556
0.573556
0.578913
0.58896
0.602883
0.619644
0.638045
0.656978
0.675384
0.692512
0.707787
0.720985
0.732106
0.741379
0.749117
0.755676
0.761293
0.766221
0.770659
0.77493
0.779597
0.785301
0.792787
0.801898
0.811241
0.817706
0.815884
0.809707
0.800901
0.792201
0.785155
0.779613
0.775131
0.770932
0.766606
0.761841
0.756406
0.750147
0.742767
0.733986
0.723481
0.711036
0.696603
0.680446
0.662996
0.645091
0.627614
0.611729
0.598496
0.58896
0.583869
0.583869
0.58896
0.598496
0.611729
0.627614
0.645091
0.662996
0.680446
0.696603
0.711036
0.723481
0.733986
0.742767
0.750147
0.756406
0.761841
0.766606
0.770932
0.775131
0.779613
0.785155
0.792201
0.800901
0.809707
0.815884
0.813032
0.807399
0.799286
0.791435
0.784846
0.77976
0.775406
0.771395
0.767203
0.762622
0.757479
0.751565
0.744683
0.736553
0.726874
0.71545
0.702228
0.687349
0.671339
0.654778
0.63868
0.623955
0.611729
0.602883
0.598171
0.598171
0.602883
0.611729
0.623955
0.63868
0.654778
0.671339
0.687349
0.702228
0.71545
0.726874
0.736553
0.744683
0.751565
0.757479
0.762622
0.767203
0.771395
0.775406
0.77976
0.784846
0.791435
0.799286
0.807399
0.813032
0.809092
0.804138
0.797197
0.790272
0.784608
0.77988
0.775917
0.772019
0.76804
0.763679
0.758833
0.753334
0.747015
0.739594
0.730905
0.720665
0.708852
0.695606
0.681222
0.666435
0.651898
0.63868
0.627614
0.619644
0.615376
0.615376
0.619644
0.627614
0.63868
0.651898
0.666435
0.681222
0.695606
0.708852
0.720665
0.730905
0.739594
0.747015
0.753334
0.758833
0.763679
0.76804
0.772019
0.775917
0.77988
0.784608
0.790272
0.797197
0.804138
0.809092
0.803916
0.799984
0.794378
0.78896
0.784154
0.780228
0.776495
0.772936
0.769096
0.765016
0.760468
0.755423
0.749619
0.74302
0.735251
0.726329
0.716029
0.704496
0.692045
0.679076
0.666435
0.654778
0.645091
0.638045
0.634294
0.634294
0.638045
0.645091
0.654778
0.666435
0.679076
0.692045
0.704496
0.716029
0.726329
0.735251
0.74302
0.749619
0.755423
0.760468
0.765016
0.769096
0.772936
0.776495
0.780228
0.784154
0.78896
0.794378
0.799984
0.803916
0.797478
0.79473
0.791012
0.787148
0.783777
0.780468
0.77737
0.773965
0.77047
0.766572
0.762418
0.757713
0.752558
0.74655
0.739862
0.732052
0.723329
0.713544
0.702972
0.692045
0.681222
0.671339
0.662996
0.656978
0.653737
0.653737
0.656978
0.662996
0.671339
0.681222
0.692045
0.702972
0.713544
0.723329
0.732052
0.739862
0.74655
0.752558
0.757713
0.762418
0.766572
0.77047
0.773965
0.77737
0.780468
0.783777
0.787148
0.791012
0.79473
0.797478
0.789711
0.788481
0.786804
0.785085
0.783039
0.780885
0.778177
0.775303
0.771945
0.768453
0.764505
0.760344
0.755533
0.750379
0.74434
0.737823
0.730348
0.722282
0.713544
0.704496
0.695606
0.687349
0.680446
0.675384
0.672682
0.672682
0.675384
0.680446
0.687349
0.695606
0.704496
0.713544
0.722282
0.730348
0.737823
0.74434
0.750379
0.755533
0.760344
0.764505
0.768453
0.771945
0.775303
0.778177
0.780885
0.783039
0.785085
0.786804
0.788481
0.789711
0.780719
0.781121
0.781923
0.782359
0.782196
0.780985
0.779171
0.776559
0.773708
0.770359
0.766917
0.762953
0.75885
0.754021
0.74901
0.743178
0.737116
0.730348
0.723329
0.716029
0.708852
0.702228
0.696603
0.692512
0.690295
0.690295
0.692512
0.696603
0.702228
0.708852
0.716029
0.723329
0.730348
0.737116
0.743178
0.74901
0.754021
0.75885
0.762953
0.766917
0.770359
0.773708
0.776559
0.779171
0.780985
0.782196
0.782359
0.781923
0.781121
0.780719
0.770651
0.772834
0.77613
0.779134
0.780741
0.781007
0.779843
0.777965
0.775328
0.772512
0.769211
0.765868
0.76193
0.757952
0.753245
0.748542
0.743178
0.737823
0.732052
0.726329
0.720665
0.71545
0.711036
0.707787
0.706035
0.706035
0.707787
0.711036
0.71545
0.720665
0.726329
0.732052
0.737823
0.743178
0.748542
0.753245
0.757952
0.76193
0.765868
0.769211
0.772512
0.775328
0.777965
0.779843
0.781007
0.780741
0.779134
0.77613
0.772834
0.770651
0.759844
0.763694
0.769565
0.775024
0.778814
0.78041
0.780404
0.77902
0.77704
0.774426
0.771706
0.768486
0.76527
0.761424
0.757653
0.753245
0.74901
0.74434
0.739862
0.735251
0.730905
0.726874
0.723481
0.720985
0.719627
0.719627
0.720985
0.723481
0.726874
0.730905
0.735251
0.739862
0.74434
0.74901
0.753245
0.757653
0.761424
0.76527
0.768486
0.771706
0.774426
0.77704
0.77902
0.780404
0.78041
0.778814
0.775024
0.769565
0.763694
0.759844
0.748716
0.754007
0.762114
0.770088
0.775935
0.779307
0.78034
0.779917
0.778363
0.776372
0.773847
0.771254
0.768142
0.765078
0.761424
0.757952
0.754021
0.750379
0.74655
0.74302
0.739594
0.736553
0.733986
0.732106
0.731084
0.731084
0.732106
0.733986
0.736553
0.739594
0.74302
0.74655
0.750379
0.754021
0.757952
0.761424
0.765078
0.768142
0.771254
0.773847
0.776372
0.778363
0.779917
0.78034
0.779307
0.775935
0.770088
0.762114
0.754007
0.748716
0.737815
0.744063
0.753939
0.764032
0.7721
0.777196
0.779732
0.780197
0.779486
0.777895
0.775975
0.77357
0.77111
0.768142
0.76527
0.76193
0.75885
0.755533
0.752558
0.749619
0.747015
0.744683
0.742767
0.741379
0.740619
0.740619
0.741379
0.742767
0.744683
0.747015
0.749619
0.752558
0.755533
0.75885
0.76193
0.76527
0.768142
0.77111
0.77357
0.775975
0.777895
0.779486
0.780197
0.779732
0.777196
0.7721
0.764032
0.753939
0.744063
0.737815
0.727712
0.734312
0.745128
0.756892
0.766897
0.774017
0.778097
0.779903
0.780007
0.779185
0.777652
0.775844
0.77357
0.771254
0.768486
0.765868
0.762953
0.760344
0.757713
0.755423
0.753334
0.751565
0.750147
0.749117
0.74857
0.74857
0.749117
0.750147
0.751565
0.753334
0.755423
0.757713
0.760344
0.762953
0.765868
0.768486
0.771254
0.77357
0.775844
0.777652
0.779185
0.780007
0.779903
0.778097
0.774017
0.766897
0.756892
0.745128
0.734312
0.727712
0.718958
0.725215
0.736024
0.748592
0.760268
0.769284
0.775306
0.778573
0.779921
0.779879
0.779077
0.777652
0.775975
0.773847
0.771706
0.769211
0.766917
0.764505
0.762418
0.760468
0.758833
0.757479
0.756406
0.755676
0.75527
0.75527
0.755676
0.756406
0.757479
0.758833
0.760468
0.762418
0.764505
0.766917
0.769211
0.771706
0.773847
0.775975
0.777652
0.779077
0.779879
0.779921
0.778573
0.775306
0.769284
0.760268
0.748592
0.736024
0.725215
0.718958
0.711949
0.717278
0.727051
0.739445
0.752027
0.762853
0.770811
0.775987
0.778759
0.779911
0.779879
0.779185
0.777895
0.776372
0.774426
0.772512
0.770359
0.768453
0.766572
0.765016
0.763679
0.762622
0.761841
0.761293
0.761015
0.761015
0.761293
0.761841
0.762622
0.763679
0.765016
0.766572
0.768453
0.770359
0.772512
0.774426
0.776372
0.777895
0.779185
0.779879
0.779911
0.778759
0.775987
0.770811
0.762853
0.752027
0.739445
0.727051
0.717278
0.711949
0.706842
0.710885
0.718841
0.729925
0.74249
0.754454
0.764375
0.77153
0.776195
0.778759
0.779921
0.780007
0.779486
0.778363
0.77704
0.775328
0.773708
0.771945
0.77047
0.769096
0.76804
0.767203
0.766606
0.766221
0.766017
0.766017
0.766221
0.766606
0.767203
0.76804
0.769096
0.77047
0.771945
0.773708
0.775328
0.77704
0.778363
0.779486
0.780007
0.779921
0.778759
0.776195
0.77153
0.764375
0.754454
0.74249
0.729925
0.718841
0.710885
0.706842
0.7035
0.706216
0.711973
0.720891
0.732224
0.744422
0.755668
0.76487
0.77153
0.775987
0.778573
0.779903
0.780197
0.779917
0.77902
0.777965
0.776559
0.775303
0.773965
0.772936
0.772019
0.771395
0.770932
0.770659
0.770515
0.770515
0.770659
0.770932
0.771395
0.772019
0.772936
0.773965
0.775303
0.776559
0.777965
0.77902
0.779917
0.780197
0.779903
0.778573
0.775987
0.77153
0.76487
0.755668
0.744422
0.732224
0.720891
0.711973
0.706216
0.7035
0.70157
0.703169
0.706844
0.713187
0.722321
0.733434
0.745073
0.755668
0.764375
0.770811
0.775306
0.778097
0.779732
0.78034
0.780404
0.779843
0.779171
0.778177
0.77737
0.776495
0.775917
0.775406
0.775131
0.77493
0.77485
0.77485
0.77493
0.775131
0.775406
0.775917
0.776495
0.77737
0.778177
0.779171
0.779843
0.780404
0.78034
0.779732
0.778097
0.775306
0.770811
0.764375
0.755668
0.745073
0.733434
0.722321
0.713187
0.706844
0.703169
0.70157
0.700602
0.701417
0.703464
0.707424
0.713871
0.722819
0.733434
0.744422
0.754454
0.762853
0.769284
0.774017
0.777196
0.779307
0.78041
0.781007
0.780985
0.780885
0.780468
0.780228
0.77988
0.77976
0.779613
0.779597
0.779561
0.779561
0.779597
0.779613
0.77976
0.77988
0.780228
0.780468
0.780885
0.780985
0.781007
0.78041
0.779307
0.777196
0.774017
0.769284
0.762853
0.754454
0.744422
0.733434
0.722819
0.713871
0.707424
0.703464
0.701417
0.700602
0.70019
0.700543
0.701528
0.703675
0.707634
0.713871
0.722321
0.732224
0.74249
0.752027
0.760268
0.766897
0.7721
0.775935
0.778814
0.780741
0.782196
0.783039
0.783777
0.784154
0.784608
0.784846
0.785155
0.785301
0.785412
0.785412
0.785301
0.785155
0.784846
0.784608
0.784154
0.783777
0.783039
0.782196
0.780741
0.778814
0.775935
0.7721
0.766897
0.760268
0.752027
0.74249
0.732224
0.722321
0.713871
0.707634
0.703675
0.701528
0.700543
0.70019
0.700047
0.700173
0.700575
0.701577
0.703675
0.707424
0.713187
0.720891
0.729925
0.739445
0.748592
0.756892
0.764032
0.770088
0.775024
0.779134
0.782359
0.785085
0.787148
0.78896
0.790272
0.791435
0.792201
0.792787
0.793038
0.793038
0.792787
0.792201
0.791435
0.790272
0.78896
0.787148
0.785085
0.782359
0.779134
0.775024
0.770088
0.764032
0.756892
0.748592
0.739445
0.729925
0.720891
0.713187
0.707424
0.703675
0.701577
0.700575
0.700173
0.700047
0.700008
0.700043
0.700178
0.700575
0.701528
0.703464
0.706844
0.711973
0.718841
0.727051
0.736024
0.745128
0.753939
0.762114
0.769565
0.77613
0.781923
0.786804
0.791012
0.794378
0.797197
0.799286
0.800901
0.801898
0.802419
0.802419
0.801898
0.800901
0.799286
0.797197
0.794378
0.791012
0.786804
0.781923
0.77613
0.769565
0.762114
0.753939
0.745128
0.736024
0.727051
0.718841
0.711973
0.706844
0.703464
0.701528
0.700575
0.700178
0.700043
0.700008
0.700001
0.700008
0.700043
0.700173
0.700543
0.701417
0.703169
0.706216
0.710885
0.717278
0.725215
0.734312
0.744063
0.754007
0.763694
0.772834
0.781121
0.788481
0.79473
0.799984
0.804138
0.807399
0.809707
0.811241
0.811969
0.811969
0.811241
0.809707
0.807399
0.804138
0.799984
0.79473
0.788481
0.781121
0.772834
0.763694
0.754007
0.744063
0.734312
0.725215
0.717278
0.710885
0.706216
0.703169
0.701417
0.700543
0.700173
0.700043
0.700008
0.700001
0.7
0.700001
0.700008
0.700047
0.70019
0.700602
0.70157
0.7035
0.706842
0.711949
0.718958
0.727712
0.737815
0.748716
0.759844
0.770651
0.780719
0.789711
0.797478
0.803916
0.809092
0.813032
0.815884
0.817706
0.8186
0.8186
0.817706
0.815884
0.813032
0.809092
0.803916
0.797478
0.789711
0.780719
0.770651
0.759844
0.748716
0.737815
0.727712
0.718958
0.711949
0.706842
0.7035
0.70157
0.700602
0.70019
0.700047
0.700008
0.700001
0.7
SCALARS HU float 1
LOOKUP_TABLE default
0
-1.34591e-006
-1.44164e-005
-8.21343e-005
-0.000326411
-0.0010066
-0.00255142
-0.00551174
-0.0104096
-0.0175179
-0.0266864
-0.0373023
-0.0484226
-0.0589737
-0.0679387
-0.0744808
-0.0780198
-0.0782483
-0.0751633
-0.0689679
-0.0600688
-0.0489474
-0.036139
-0.0221576
-0.00747383
0.00747383
0.0221576
0.036139
0.0489474
0.0600688
0.0689679
0.0751633
0.0782483
0.0780198
0.0744808
0.0679387
0.0589737
0.0484226
0.0373023
0.0266864
0.0175179
0.0104096
0.00551174
0.00255142
0.0010066
0.000326411
8.21343e-005
1.44164e-005
1.34591e-006
0
-1.45616e-006
-1.42127e-005
-7.91067e-005
-0.000310715
-0.000956164
-0.00243313
-0.00529612
-0.0100927
-0.017128
-0.0262749
-0.0369149
-0.0481154
-0.0588354
-0.06815
-0.0753145
-0.0798286
-0.0813723
-0.0799022
-0.0754709
-0.0684026
-0.0590119
-0.0477729
-0.035117
-0.0214584
-0.00724248
0.00724248
0.0214584
0.035117
0.0477729
0.0590119
0.0684026
0.0754709
0.0799022
0.0813723
0.0798286
0.0753145
0.06815
0.0588354
0.0481154
0.0369149
0.0262749
0.017128
0.0100927
0.00529612
0.00243313
0.000956164
0.000310715
7.91067e-005
1.42127e-005
1.45616e-006
-1.28784e-005
-8.21615e-005
-0.000333755
-0.00105666
-0.00275406
-0.00610781
-0.0117917
-0.0201359
-0.0308637
-0.0430303
-0.0553853
-0.0666842
-0.076058
-0.082928
-0.0870715
-0.0883574
-0.0869278
-0.0828418
-0.0764696
-0.0679973
-0.0578626
-0.0463565
-0.0338088
-0.0206003
-0.00689758
0.00689758
0.0206003
0.0338088
0.0463565
0.0578626
0.0679973
0.0764696
0.0828418
0.0869278
0.0883574
0.0870715
0.082928
0.076058
0.0666842
0.0553853
0.0430303
0.0308637
0.0201359
0.0117917
0.00610781
0.00275406
0.00105666
0.000333755
8.21615e-005
1.28784e-005
-6.60925e-005
-0.000333555
-0.00109975
-0.00296775
-0.006793
-0.0134747
-0.0234954
-0.0365017
-0.05116
-0.065723
-0.0785156
-0.0885799
-0.0954181
-0.0991093
-0.0997373
-0.0977104
-0.0931593
-0.0866147
-0.0781912
-0.0683992
-0.0574
-0.0455029
-0.033001
-0.0199353
-0.00674202
0.00674202
0.0199353
0.033001
0.0455029
0.0574
0.0683992
0.0781912
0.0866147
0.0931593
0.0977104
0.0997373
0.0991093
0.0954181
0.0885799
0.0785156
0.065723
0.05116
0.0365017
0.0234954
0.0134747
0.006793
0.00296775
0.00109975
0.000333555
6.60925e-005
-0.000241504
-0.00105665
-0.0029903
-0.00709131
-0.014523
-0.0260236
-0.0412985
-0.0587097
-0.0759906
-0.0909246
-0.102349
-0.109747
-0.113458
-0.113751
-0.111288
-0.106257
-0.0993542
-0.0906285
-0.0807353
-0.0697173
-0.0579706
-0.0456836
-0.0328654
-0.0199301
-0.00659419
0.00659419
0.0199301
0.0328654
0.0456836
0.0579706
0.0697173
0.0807353
0.0906285
0.0993542
0.106257
0.111288
0.113751
0.113458
0.109747
0.102349
0.0909246
0.0759906
0.0587097
0.0412985
0.0260236
0.014523
0.00709131
0.0029903
0.00105665
0.000241504
-0.000695621
-0.00275995
-0.00693326
-0.0147317
-0.0272553
-0.0444284
-0.0644618
-0.0846074
-0.102047
-0.115311
-0.123779
-0.12801
-0.128444
-0.125971
-0.12083
-0.113832
-0.104941
-0.094953
-0.0837745
-0.0719674
-0.0595853
-0.0467215
-0.0337109
-0.0202213
-0.00688079
0.00688079
0.0202213
0.0337109
0.0467215
0.0595853
0.0719674
0.0837745
0.094953
0.104941
0.113832
0.12083
0.125971
0.128444
0.12801
0.123779
0.115311
0.102047
0.0846074
0.0644618
0.0444284
0.0272553
0.0147317
0.00693326
0.00275995
0.000695621
-0.00166694
-0.00615214
-0.0140179
-0.0269868
-0.0454614
-0.0677587
-0.0907557
-0.110981
-0.126505
-0.13649
-0.141661
-0.142629
-0.140522
-0.135665
-0.128936
-0.12022
-0.110396
-0.0992139
-0.0874261
-0.0749128
-0.0619488
-0.0487222
-0.0349643
-0.0212434
-0.00699125
0.00699125
0.0212434
0.0349643
0.0487222
0.0619488
0.0749128
0.0874261
0.0992139
0.110396
0.12022
0.128936
0.135665
0.140522
0.142629
0.141661
0.13649
0.126505
0.110981
0.0907557
0.0677587
0.0454614
0.0269868
0.0140179
0.00615214
0.00166694
-0.00343659
-0.0119817
-0.0250962
-0.0441946
-0.0681917
-0.0938757
-0.117147
-0.135413
-0.147433
-0.153976
-0.155817
-0.154356
-0.150065
-0.143893
-0.135679
-0.126323
-0.115413
-0.103872
-0.09137
-0.0784335
-0.0650417
-0.0510933
-0.036993
-0.022221
-0.00758945
0.00758945
0.022221
0.036993
0.0510933
0.0650417
0.0784335
0.09137
0.103872
0.115413
0.126323
0.135679
0.143893
0.150065
0.154356
0.155817
0.153976
0.147433
0.135413
0.117147
0.0938757
0.0681917
0.0441946
0.0250962
0.0119817
0.00343659
-0.00623934
-0.0207342
-0.0403625
-0.0655026
-0.0935369
-0.120022
-0.141561
-0.156265
-0.164735
-0.167837
-0.167273
-0.163736
-0.158299
-0.150823
-0.142189
-0.131835
-0.120801
-0.108527
-0.0958232
-0.082413
-0.0684594
-0.0541243
-0.0390187
-0.0237845
-0.00785423
0.00785423
0.0237845
0.0390187
0.0541243
0.0684594
0.082413
0.0958232
0.108527
0.120801
0.131835
0.142189
0.150823
0.158299
0.163736
0.167273
0.167837
0.164735
0.156265
0.141561
0.120022
0.0935369
0.0655026
0.0403625
0.0207342
0.00623934
-0.0101438
-0.03237
-0.0590526
-0.0892736
-0.119063
-0.144391
-0.162536
-0.17365
-0.178538
-0.179192
-0.17657
-0.171973
-0.165372
-0.157632
-0.148078
-0.137801
-0.125994
-0.113751
-0.100498
-0.0867477
-0.0723677
-0.0571867
-0.0415862
-0.0250971
-0.00856048
0.00856048
0.0250971
0.0415862
0.0571867
0.0723677
0.0867477
0.100498
0.113751
0.125994
0.137801
0.148078
0.157632
0.165372
0.171973
0.17657
0.179192
0.178538
0.17365
0.162536
0.144391
0.119063
0.0892736
0.0590526
0.03237
0.0101438
-0.0149984
-0.0461844
-0.0797627
-0.113387
-0.143135
-0.165598
-0.180246
-0.187635
-0.189975
-0.188488
-0.184826
-0.179152
-0.172389
-0.163818
-0.15451
-0.143424
-0.131884
-0.118983
-0.105646
-0.0913974
-0.0763886
-0.0606879
-0.0439669
-0.0268332
-0.00891714
0.00891714
0.0268332
0.0439669
0.0606879
0.0763886
0.0913974
0.105646
0.118983
0.131884
0.143424
0.15451
0.163818
0.172389
0.179152
0.184826
0.188488
0.189975
0.187635
0.180246
0.165598
0.143135
0.113387
0.0797627
0.0461844
0.0149984
-0.0204221
-0.0610674
-0.100685
-0.136292
-0.164369
-0.183742
-0.194617
-0.199327
-0.199342
-0.196773
-0.192043
-0.186268
-0.178768
-0.170575
-0.160462
-0.149875
-0.137563
-0.124866
-0.110915
-0.0962976
-0.0807209
-0.0640752
-0.0466881
-0.0282637
-0.00961237
0.00961237
0.0282637
0.0466881
0.0640752
0.0807209
0.0962976
0.110915
0.124866
0.137563
0.149875
0.160462
0.170575
0.178768
0.186268
0.192043
0.196773
0.199342
0.199327
0.194617
0.183742
0.164369
0.136292
0.100685
0.0610674
0.0204221
-0.0259521
-0.0756987
-0.120395
-0.156596
-0.18267
-0.198554
-0.206685
-0.208832
-0.207671
-0.203949
-0.199139
-0.192699
-0.18567
-0.176728
-0.167316
-0.155878
-0.144079
-0.130627
-0.116616
-0.10134
-0.0850235
-0.0676748
-0.0491014
-0.0299372
-0.00998051
0.00998051
0.0299372
0.0491014
0.0676748
0.0850235
0.10134
0.116616
0.130627
0.144079
0.155878
0.167316
0.176728
0.18567
0.192699
0.199139
0.203949
0.207671
0.208832
0.206685
0.198554
0.18267
0.156596
0.120395
0.0756987
0.0259521
-0.0311013
-0.089039
-0.137622
-0.173976
-0.197577
-0.210953
-0.21636
-0.217219
-0.214732
-0.210915
-0.205467
-0.199547
-0.191866
-0.183767
-0.173499
-0.162864
-0.150182
-0.13702
-0.122217
-0.106448
-0.0893474
-0.0709133
-0.0515797
-0.0311819
-0.0105821
0.0105821
0.0311819
0.0515797
0.0709133
0.0893474
0.106448
0.122217
0.13702
0.150182
0.162864
0.173499
0.183767
0.191866
0.199547
0.205467