# vtk DataFile Version 2.0
HPC Tutorials: Michael Bader, Kaveh Rahnema, Oliver Meister
ASCII
DATASET RECTILINEAR_GRID
DIMENSIONS 51 51 1
X_COORDINATES 51 float
0
0.02
0.04
0.06
0.08
0.1
0.12
0.14
0.16
0.18
0.2
0.22
0.24
0.26
0.28
0.3
0.32
0.34
0.36
0.38
0.4
0.42
0.44
0.46
0.48
0.5
0.52
0.54
0.56
0.58
0.6
0.62
0.64
0.66
0.68
0.7
0.72
0.74
0.76
0.78
0.8
0.82
0.84
0.86
0.88
0.9
0.92
0.94
0.96
0.98
1
Y_COORDINATES 51 float
0
0.02
0.04
0.06
0.08
0.1
0.12
0.14
0.16
0.18
0.2
0.22
0.24
0.26
0.28
0.3
0.32
0.34
0.36
0.38
0.4
0.42
0.44
0.46
0.48
0.5
0.52
0.54
0.56
0.58
0.6
0.62
0.64
0.66
0.68
0.7
0.72
0.74
0.76
0.78
0.8
0.82
0.84
0.86
0.88
0.9
0.92
0.94
0.96
0.98
1
Z_COORDINATES 1 float
0
CELL_DATA 2500
SCALARS H float 1
LOOKUP_TABLE default
0.93558
0.932886
0.927337
0.918683
0.906772
0.891811
0.874484
0.855925
0.83751
0.820475
0.805655
0.793358
0.783473
0.775629
0.769375
0.764296
0.76007
0.756478
0.753393
0.750753
0.748535
0.746741
0.745379
0.744461
0.743995
0.743995
0.744461
0.745379
0.746741
0.748535
0.750753
0.753393
0.756478
0.76007
0.764296
0.769375
0.775629
0.783473
0.793358
0.805655
0.820475
0.83751
0.855925
0.874484
0.891811
0.906772
0.918683
0.927337
0.932886
0.93558
0.932886
0.930166
0.924585
0.915974
0.90424
0.889668
0.872882
0.854953
0.837084
0.820424
0.805749
0.793417
0.783377
0.775339
0.768899
0.763672
0.759337
0.755677
0.75255
0.749888
0.74766
0.745862
0.744499
0.743582
0.743117
0.743117
0.743582
0.744499
0.745862
0.74766
0.749888
0.75255
0.755677
0.759337
0.763672
0.768899
0.775339
0.783377
0.793417
0.805749
0.820424
0.837084
0.854953
0.872882
0.889668
0.90424
0.915974
0.924585
0.930166
0.932886
0.927337
0.924585
0.919022
0.910553
0.899285
0.885488
0.869807
0.853054
0.836239
0.820265
0.805877
0.79347
0.783146
0.774735
0.767943
0.762424
0.757882
0.754082
0.750874
0.748166
0.745916
0.744109
0.742745
0.741827
0.741363
0.741363
0.741827
0.742745
0.744109
0.745916
0.748166
0.750874
0.754082
0.757882
0.762424
0.767943
0.774735
0.783146
0.79347
0.805877
0.820265
0.836239
0.853054
0.869807
0.885488
0.899285
0.910553
0.919022
0.924585
0.927337
0.918683
0.915974
0.910553
0.90253
0.892055
0.879534
0.865411
0.850333
0.834922
0.819909
0.805908
0.79343
0.78272
0.773812
0.766526
0.760607
0.755767
0.751773
0.748446
0.745675
0.743395
0.741576
0.740209
0.739294
0.738831
0.738831
0.739294
0.740209
0.741576
0.743395
0.745675
0.748446
0.751773
0.755767
0.760607
0.766526
0.773812
0.78272
0.79343
0.805908
0.819909
0.834922
0.850333
0.865411
0.879534
0.892055
0.90253
0.910553
0.915974
0.918683
0.906772
0.90424
0.899285
0.892055
0.882878
0.872033
0.859916
0.846794
0.833071
0.819165
0.805672
0.793136
0.782019
0.772531
0.764675
0.758268
0.753073
0.748838
0.74537
0.742522
0.740209
0.73838
0.737014
0.736102
0.735643
0.735643
0.736102
0.737014
0.73838
0.740209
0.742522
0.74537
0.748838
0.753073
0.758268
0.764675
0.772531
0.782019
0.793136
0.805672
0.819165
0.833071
0.846794
0.859916
0.872033
0.882878
0.892055
0.899285
0.90424
0.906772
0.891811
0.889668
0.885488
0.879534
0.872033
0.86328
0.853368
0.842418
0.830465
0.817811
0.804901
0.7924
0.780899
0.770838
0.762373
0.755449
0.749859
0.745366
0.74174
0.738816
0.736471
0.734639
0.733281
0.73238
0.731928
0.731928
0.73238
0.733281
0.734639
0.736471
0.738816
0.74174
0.745366
0.749859
0.755449
0.762373
0.770838
0.780899
0.7924
0.804901
0.817811
0.830465
0.842418
0.853368
0.86328
0.872033
0.879534
0.885488
0.889668
0.891811
0.874484
0.872882
0.869807
0.865411
0.859916
0.853368
0.845784
0.836971
0.826859
0.815495
0.803311
0.790945
0.779179
0.768604
0.759571
0.752133
0.746155
0.741398
0.737626
0.734633
0.732275
0.730456
0.729121
0.72824
0.727801
0.727801
0.72824
0.729121
0.730456
0.732275
0.734633
0.737626
0.741398
0.746155
0.752133
0.759571
0.768604
0.779179
0.790945
0.803311
0.815495
0.826859
0.836971
0.845784
0.853368
0.859916
0.865411
0.869807
0.872882
0.874484
0.855925
0.854953
0.853054
0.850333
0.846794
0.842418
0.836971
0.830222
0.821861
0.811868
0.800516
0.788483
0.776595
0.765647
0.756131
0.748242
0.741909
0.736926
0.733034
0.730007
0.727664
0.725887
0.724598
0.723755
0.723337
0.723337
0.723755
0.724598
0.725887
0.727664
0.730007
0.733034
0.736926
0.741909
0.748242
0.756131
0.765647
0.776595
0.788483
0.800516
0.811868
0.821861
0.830222
0.836971
0.842418
0.846794
0.850333
0.853054
0.854953
0.855925
0.83751
0.837084
0.836239
0.834922
0.833071
0.830465
0.826859
0.821861
0.815152
0.806528
0.796182
0.784658
0.772866
0.761698
0.751841
0.743602
0.737
0.731851
0.727901
0.72489
0.722614
0.720921
0.719715
0.718935
0.718551
0.718551
0.718935
0.719715
0.720921
0.722614
0.72489
0.727901
0.731851
0.737
0.743602
0.751841
0.761698
0.772866
0.784658
0.796182
0.806528
0.815152
0.821861
0.826859
0.830465
0.833071
0.834922
0.836239
0.837084
0.83751
0.820475
0.820424
0.820265
0.819909
0.819165
0.817811
0.815495
0.811868
0.806528
0.799199
0.789926
0.779167
0.767712
0.756518
0.746453
0.737991
0.731219
0.726
0.722071
0.719158
0.717017
0.71547
0.714394
0.713711
0.713379
0.713379
0.713711
0.714394
0.71547
0.717017
0.719158
0.722071
0.726
0.731219
0.737991
0.746453
0.756518
0.767712
0.779167
0.789926
0.799199
0.806528
0.811868
0.815495
0.817811
0.819165
0.819909
0.820265
0.820424
0.820475
0.805655
0.805749
0.805877
0.805908
0.805672
0.804901
0.803311
0.800516
0.796182
0.789926
0.781684
0.771746
0.760827
0.749868
0.739797
0.731212
0.724379
0.719185
0.715375
0.712641
0.710717
0.709385
0.708494
0.707947
0.707686
0.707686
0.707947
0.708494
0.709385
0.710717
0.712641
0.715375
0.719185
0.724379
0.731212
0.739797
0.749868
0.760827
0.771746
0.781684
0.789926
0.796182
0.800516
0.803311
0.804901
0.805672
0.805908
0.805877
0.805749
0.805655
0.793358
0.793417
0.79347
0.79343
0.793136
0.7924
0.790945
0.788483
0.784658
0.779167
0.771746
0.76259
0.752262
0.741657
0.731716
0.723183
0.716379
0.711294
0.707677
0.705209
0.703576
0.702529
0.701881
0.70151
0.701341
0.701341
0.70151
0.701881
0.702529
0.703576
0.705209
0.707677
0.711294
0.716379
0.723183
0.731716
0.741657
0.752262
0.76259
0.771746
0.779167
0.784658
0.788483
0.790945
0.7924
0.793136
0.79343
0.79347
0.793417
0.793358
0.783473
0.783377
0.783146
0.78272
0.782019
0.780899
0.779179
0.776595
0.772866
0.767712
0.760827
0.752262
0.742459
0.732208
0.722471
0.714025
0.70732
0.702395
0.699029
0.696876
0.695592
0.69488
0.694519
0.694355
0.694296
0.694296
0.694355
0.694519
0.69488
0.695592
0.696876
0.699029
0.702395
0.70732
0.714025
0.722471
0.732208
0.742459
0.752262
0.760827
0.767712
0.772866
0.776595
0.779179
0.780899
0.782019
0.78272
0.783146
0.783377
0.783473
0.775629
0.775339
0.774735
0.773812
0.772531
0.770838
0.768604
0.765647
0.761698
0.756518
0.749868
0.741657
0.732208
0.72224
0.712647
0.704285
0.69766
0.692889
0.689768
0.687942
0.687021
0.686666
0.686612
0.686672
0.68673
0.68673
0.686672
0.686612
0.686666
0.687021
0.687942
0.689768
0.692889
0.69766
0.704285
0.712647
0.72224
0.732208
0.741657
0.749868
0.756518
0.761698
0.765647
0.768604
0.770838
0.772531
0.773812
0.774735
0.775339
0.775629
0.769375
0.768899
0.767943
0.766526
0.764675
0.762373
0.759571
0.756131
0.751841
0.746453
0.739797
0.731716
0.722471
0.712647
0.703131
0.694777
0.688174
0.683498
0.680575
0.679034
0.678448
0.67843
0.67867
0.678946
0.67912
0.67912
0.678946
0.67867
0.67843
0.678448
0.679034
0.680575
0.683498
0.688174
0.694777
0.703131
0.712647
0.722471
0.731716
0.739797
0.746453
0.751841
0.756131
0.759571
0.762373
0.764675
0.766526
0.767943
0.768899
0.769375
0.764296
0.763672
0.762424
0.760607
0.758268
0.755449
0.752133
0.748242
0.743602
0.737991
0.731212
0.723183
0.714025
0.704285
0.694777
0.686382
0.67974
0.675093
0.672298
0.670976
0.670665
0.670933
0.671426
0.671891
0.672165
0.672165
0.671891
0.671426
0.670933
0.670665
0.670976
0.672298
0.675093
0.67974
0.686382
0.694777
0.704285
0.714025
0.723183
0.731212
0.737991
0.743602
0.748242
0.752133
0.755449
0.758268
0.760607
0.762424
0.763672
0.764296
0.76007
0.759337
0.757882
0.755767
0.753073
0.749859
0.746155
0.741909
0.737
0.731219
0.724379
0.716379
0.70732
0.69766
0.688174
0.67974
0.673049
0.668398
0.665681
0.664516
0.664415
0.664905
0.665598
0.66621
0.666563
0.666563
0.66621
0.665598
0.664905
0.664415
0.664516
0.665681
0.668398
0.673049
0.67974
0.688174
0.69766
0.70732
0.716379
0.724379
0.731219
0.737
0.741909
0.746155
0.749859
0.753073
0.755767
0.757882
0.759337
0.76007
0.756478
0.755677
0.754082
0.751773
0.748838
0.745366
0.741398
0.736926
0.731851
0.726
0.719185
0.711294
0.702395
0.692889
0.683498
0.675093
0.668398
0.663762
0.661111
0.660068
0.660125
0.660781
0.661618
0.662336
0.662744
0.662744
0.662336
0.661618
0.660781
0.660125
0.660068
0.661111
0.663762
0.668398
0.675093
0.683498
0.692889
0.702395
0.711294
0.719185
0.726
0.731851
0.736926
0.741398
0.745366
0.748838
0.751773
0.754082
0.755677
0.756478
0.753393
0.75255
0.750874
0.748446
0.74537
0.74174
0.737626
0.733034
0.727901
0.722071
0.715375
0.707677
0.699029
0.689768
0.680575
0.672298
0.665681
0.661111
0.658545
0.657613
0.657794
0.658569
0.659504
0.66029
0.660733
0.660733
0.66029
0.659504
0.658569
0.657794
0.657613
0.658545
0.661111
0.665681
0.672298
0.680575
0.689768
0.699029
0.707677
0.715375
0.722071
0.727901
0.733034
0.737626
0.74174
0.74537
0.748446
0.750874
0.75255
0.753393
0.750753
0.749888
0.748166
0.745675
0.742522
0.738816
0.734633
0.730007
0.72489
0.719158
0.712641
0.705209
0.696876
0.687942
0.679034
0.670976
0.664516
0.660068
0.657613
0.656788
0.657069
0.657926
0.658921
0.659743
0.660203
0.660203
0.659743
0.658921
0.657926
0.657069
0.656788
0.657613
0.660068
0.664516
0.670976
0.679034
0.687942
0.696876
0.705209
0.712641
0.719158
0.72489
0.730007
0.734633
0.738816
0.742522
0.745675
0.748166
0.749888
0.750753
0.748535
0.74766
0.745916
0.743395
0.740209
0.736471
0.732275
0.727664
0.722614
0.717017
0.710717
0.703576
0.695592
0.687021
0.678448
0.670665
0.664415
0.660125
0.657794
0.657069
0.657425
0.658331
0.659354
0.660188
0.660651
0.660651
0.660188
0.659354
0.658331
0.657425
0.657069
0.657794
0.660125
0.664415
0.670665
0.678448
0.687021
0.695592
0.703576
0.710717
0.717017
0.722614
0.727664
0.732275
0.736471
0.740209
0.743395
0.745916
0.74766
0.748535
0.746741
0.745862
0.744109
0.741576
0.73838
0.734639
0.730456
0.725887
0.720921
0.71547
0.709385
0.702529
0.69488
0.686666
0.67843
0.670933
0.664905
0.660781
0.658569
0.657926
0.658331
0.659261
0.660287
0.661115
0.661572
0.661572
0.661115
0.660287
0.659261
0.658331
0.657926
0.658569
0.660781
0.664905
0.670933
0.67843
0.686666
0.69488
0.702529
0.709385
0.71547
0.720921
0.725887
0.730456
0.734639
0.73838
0.741576
0.744109
0.745862
0.746741
0.745379
0.744499
0.742745
0.740209
0.737014
0.733281
0.729121
0.724598
0.719715
0.714394
0.708494
0.701881
0.694519
0.686612
0.67867
0.671426
0.665598
0.661618
0.659504
0.658921
0.659354
0.660287
0.661302
0.662115
0.662562
0.662562
0.662115
0.661302
0.660287
0.659354
0.658921
0.659504
0.661618
0.665598
0.671426
0.67867
0.686612
0.694519
0.701881
0.708494
0.714394
0.719715
0.724598
0.729121
0.733281
0.737014
0.740209
0.742745
0.744499
0.745379
0.744461
0.743582
0.741827
0.739294
0.736102
0.73238
0.72824
0.723755
0.718935
0.713711
0.707947
0.70151
0.694355
0.686672
0.678946
0.671891
0.66621
0.662336
0.66029
0.659743
0.660188
0.661115
0.662115
0.662912
0.663349
0.663349
0.662912
0.662115
0.661115
0.660188
0.659743
0.66029
0.662336
0.66621
0.671891
0.678946
0.686672
0.694355
0.70151
0.707947
0.713711
0.718935
0.723755
0.72824
0.73238
0.736102
0.739294
0.741827
0.743582
0.744461
0.743995
0.743117
0.741363
0.738831
0.735643
0.731928
0.727801
0.723337
0.718551
0.713379
0.707686
0.701341
0.694296
0.68673
0.67912
0.672165
0.666563
0.662744
0.660733
0.660203
0.660651
0.661572
0.662562
0.663349
0.663779
0.663779
0.663349
0.662562
0.661572
0.660651
0.660203
0.660733
0.662744
0.666563
0.672165
0.67912
0.68673
0.694296
0.701341
0.707686
0.713379
0.718551
0.723337
0.727801
0.731928
0.735643
0.738831
0.741363
0.743117
0.743995
0.743995
0.743117
0.741363
0.738831
0.735643
0.731928
0.727801
0.723337
0.718551
0.713379
0.707686
0.701341
0.694296
0.68673
0.67912
0.672165
0.666563
0.662744
0.660733
0.660203
0.660651
0.661572
0.662562
0.663349
0.663779
0.663779
0.663349
0.662562
0.661572
0.660651
0.660203
0.660733
0.662744
0.666563
0.672165
0.67912
0.68673
0.694296
0.701341
0.707686
0.713379
0.718551
0.723337
0.727801
0.731928
0.735643
0.738831
0.741363
0.743117
0.743995
0.744461
0.743582
0.741827
0.739294
0.736102
0.73238
0.72824
0.723755
0.718935
0.713711
0.707947
0.70151
0.694355
0.686672
0.678946
0.671891
0.66621
0.662336
0.66029
0.659743
0.660188
0.661115
0.662115
0.662912
0.663349
0.663349
0.662912
0.662115
0.661115
0.660188
0.659743
0.66029
0.662336
0.66621
0.671891
0.678946
0.686672
0.694355
0.70151
0.707947
0.713711
0.718935
0.723755
0.72824
0.73238
0.736102
0.739294
0.741827
0.743582
0.744461
0.745379
0.744499
0.742745
0.740209
0.737014
0.733281
0.729121
0.724598
0.719715
0.714394
0.708494
0.701881
0.694519
0.686612
0.67867
0.671426
0.665598
0.661618
0.659504
0.658921
0.659354
0.660287
0.661302
0.662115
0.662562
0.662562
0.662115
0.661302
0.660287
0.659354
0.658921
0.659504
0.661618
0.665598
0.671426
0.67867
0.686612
0.694519
0.701881
0.708494
0.714394
0.719715
0.724598
0.729121
0.733281
0.737014
0.740209
0.742745
0.744499
0.745379
0.746741
0.745862
0.744109
0.741576
0.73838
0.734639
0.730456
0.725887
0.720921
0.71547
0.709385
0.702529
0.69488
0.686666
0.67843
0.670933
0.664905
0.660781
0.658569
0.657926
0.658331
0.659261
0.660287
0.661115
0.661572
0.661572
0.661115
0.660287
0.659261
0.658331
0.657926
0.658569
0.660781
0.664905
0.670933
0.67843
0.686666
0.69488
0.702529
0.709385
0.71547
0.720921
0.725887
0.730456
0.734639
0.73838
0.741576
0.744109
0.745862
0.746741
0.748535
0.74766
0.745916
0.743395
0.740209
0.736471
0.732275
0.727664
0.722614
0.717017
0.710717
0.703576
0.695592
0.687021
0.678448
0.670665
0.664415
0.660125
0.657794
0.657069
0.657425
0.658331
0.659354
0.660188
0.660651
0.660651
0.660188
0.659354
0.658331
0.657425
0.657069
0.657794
0.660125
0.664415
0.670665
0.678448
0.687021
0.695592
0.703576
0.710717
0.717017
0.722614
0.727664
0.732275
0.736471
0.740209
0.743395
0.745916
0.74766
0.748535
0.750753
0.749888
0.748166
0.745675
0.742522
0.738816
0.734633
0.730007
0.72489
0.719158
0.712641
0.705209
0.696876
0.687942
0.679034
0.670976
0.664516
0.660068
0.657613
0.656788
0.657069
0.657926
0.658921
0.659743
0.660203
0.660203
0.659743
0.658921
0.657926
0.657069
0.656788
0.657613
0.660068
0.664516
0.670976
0.679034
0.687942
0.696876
0.705209
0.712641
0.719158
0.72489
0.730007
0.734633
0.738816
0.742522
0.745675
0.748166
0.749888
0.750753
0.753393
0.75255
0.750874
0.748446
0.74537
0.74174
0.737626
0.733034
0.727901
0.722071
0.715375
0.707677
0.699029
0.689768
0.680575
0.672298
0.665681
0.661111
0.658545
0.657613
0.657794
0.658569
0.659504
0.66029
0.660733
0.660733
0.66029
0.659504
0.658569
0.657794
0.657613
0.658545
0.661111
0.665681
0.672298
0.680575
0.689768
0.699029
0.707677
0.715375
0.722071
0.727901
0.733034
0.737626
0.74174
0.74537
0.748446
0.750874
0.75255
0.753393
0.756478
0.755677
0.754082
0.751773
0.748838
0.745366
0.741398
0.736926
0.731851
0.726
0.719185
0.711294
0.702395
0.692889
0.683498
0.675093
0.668398
0.663762
0.661111
0.660068
0.660125
0.660781
0.661618
0.662336
0.662744
0.662744
0.662336
0.661618
0.660781
0.660125
0.660068
0.661111
0.663762
0.668398
0.675093
0.683498
0.692889
0.702395
0.711294
0.719185
0.726
0.731851
0.736926
0.741398
0.745366
0.748838
0.751773
0.754082
0.755677
0.756478
0.76007
0.759337
0.757882
0.755767
0.753073
0.749859
0.746155
0.741909
0.737
0.731219
0.724379
0.716379
0.70732
0.69766
0.688174
0.67974
0.673049
0.668398
0.665681
0.664516
0.664415
0.664905
0.665598
0.66621
0.666563
0.666563
0.66621
0.665598
0.664905
0.664415
0.664516
0.665681
0.668398
0.673049
0.67974
0.688174
0.69766
0.70732
0.716379
0.724379
0.731219
0.737
0.741909
0.746155
0.749859
0.753073
0.755767
0.757882
0.759337
0.76007
0.764296
0.763672
0.762424
0.760607
0.758268
0.755449
0.752133
0.748242
0.743602
0.737991
0.731212
0.723183
0.714025
0.704285
0.694777
0.686382
0.67974
0.675093
0.672298
0.670976
0.670665
0.670933
0.671426
0.671891
0.672165
0.672165
0.671891
0.671426
0.670933
0.670665
0.670976
0.672298
0.675093
0.67974
0.686382
0.694777
0.704285
0.714025
0.723183
0.731212
0.737991
0.743602
0.748242
0.752133
0.755449
0.758268
0.760607
0.762424
0.763672
0.764296
0.769375
0.768899
0.767943
0.766526
0.764675
0.762373
0.759571
0.756131
0.751841
0.746453
0.739797
0.731716
0.722471
0.712647
0.703131
0.694777
0.688174
0.683498
0.680575
0.679034
0.678448
0.67843
0.67867
0.678946
0.67912
0.67912
0.678946
0.67867
0.67843
0.678448
0.679034
0.680575
0.683498
0.688174
0.694777
0.703131
0.712647
0.722471
0.731716
0.739797
0.746453
0.751841
0.756131
0.759571
0.762373
0.764675
0.766526
0.767943
0.768899
0.769375
0.775629
0.775339
0.774735
0.773812
0.772531
0.770838
0.768604
0.765647
0.761698
0.756518
0.749868
0.741657
0.732208
0.72224
0.712647
0.704285
0.69766
0.692889
0.689768
0.687942
0.687021
0.686666
0.686612
0.686672
0.68673
0.68673
0.686672
0.686612
0.686666
0.687021
0.687942
0.689768
0.692889
0.69766
0.704285
0.712647
0.72224
0.732208
0.741657
0.749868
0.756518
0.761698
0.765647
0.768604
0.770838
0.772531
0.773812
0.774735
0.775339
0.775629
0.783473
0.783377
0.783146
0.78272
0.782019
0.780899
0.779179
0.776595
0.772866
0.767712
0.760827
0.752262
0.742459
0.732208
0.722471
0.714025
0.70732
0.702395
0.699029
0.696876
0.695592
0.69488
0.694519
0.694355
0.694296
0.694296
0.694355
0.694519
0.69488
0.695592
0.696876
0.699029
0.702395
0.70732
0.714025
0.722471
0.732208
0.742459
0.752262
0.760827
0.767712
0.772866
0.776595
0.779179
0.780899
0.782019
0.78272
0.783146
0.783377
0.783473
0.793358
0.793417
0.79347
0.79343
0.793136
0.7924
0.790945
0.788483
0.784658
0.779167
0.771746
0.76259
0.752262
0.741657
0.731716
0.723183
0.716379
0.711294
0.707677
0.705209
0.703576
0.702529
0.701881
0.70151
0.701341
0.701341
0.70151
0.701881
0.702529
0.703576
0.705209
0.707677
0.711294
0.716379
0.723183
0.731716
0.741657
0.752262
0.76259
0.771746
0.779167
0.784658
0.788483
0.790945
0.7924
0.793136
0.79343
0.79347
0.793417
0.793358
0.805655
0.805749
0.805877
0.805908
0.805672
0.804901
0.803311
0.800516
0.796182
0.789926
0.781684
0.771746
0.760827
0.749868
0.739797
0.731212
0.724379
0.719185
0.715375
0.712641
0.710717
0.709385
0.708494
0.707947
0.707686
0.707686
0.707947
0.708494
0.709385
0.710717
0.712641
0.715375
0.719185
0.724379
0.731212
0.739797
0.749868
0.760827
0.771746
0.781684
0.789926
0.796182
0.800516
0.803311
0.804901
0.805672
0.805908
0.805877
0.805749
0.805655
0.820475
0.820424
0.820265
0.819909
0.819165
0.817811
0.815495
0.811868
0.806528
0.799199
0.789926
0.779167
0.767712
0.756518
0.746453
0.737991
0.731219
0.726
0.722071
0.719158
0.717017
0.71547
0.714394
0.713711
0.713379
0.713379
0.713711
0.714394
0.71547
0.717017
0.719158
0.722071
0.726
0.731219
0.737991
0.746453
0.756518
0.767712
0.779167
0.789926
0.799199
0.806528
0.811868
0.815495
0.817811
0.819165
0.819909
0.820265
0.820424
0.820475
0.83751
0.837084
0.836239
0.834922
0.833071
0.830465
0.826859
0.821861
0.815152
0.806528
0.796182
0.784658
0.772866
0.761698
0.751841
0.743602
0.737
0.731851
0.727901
0.72489
0.722614
0.720921
0.719715
0.718935
0.718551
0.718551
0.718935
0.719715
0.720921
0.722614
0.72489
0.727901
0.731851
0.737
0.743602
0.751841
0.761698
0.772866
0.784658
0.796182
0.806528
0.815152
0.821861
0.826859
0.830465
0.833071
0.834922
0.836239
0.837084
0.83751
0.855925
0.854953
0.853054
0.850333
0.846794
0.842418
0.836971
0.830222
0.821861
0.811868
0.800516
0.788483
0.776595
0.765647
0.756131
0.748242
0.741909
0.736926
0.733034
0.730007
0.727664
0.725887
0.724598
0.723755
0.723337
0.723337
0.723755
0.724598
0.725887
0.727664
0.730007
0.733034
0.736926
0.741909
0.748242
0.756131
0.765647
0.776595
0.788483
0.800516
0.811868
0.821861
0.830222
0.836971
0.842418
0.846794
0.850333
0.853054
0.854953
0.855925
0.874484
0.872882
0.869807
0.865411
0.859916
0.853368
0.845784
0.836971
0.826859
0.815495
0.803311
0.790945
0.779179
0.768604
0.759571
0.752133
0.746155
0.741398
0.737626
0.734633
0.732275
0.730456
0.729121
0.72824
0.727801
0.727801
0.72824
0.729121
0.730456
0.732275
0.734633
0.737626
0.741398
0.746155
0.752133
0.759571
0.768604
0.779179
0.790945
0.803311
0.815495
0.826859
0.836971
0.845784
0.853368
0.859916
0.865411
0.869807
0.872882
0.874484
0.891811
0.889668
0.885488
0.879534
0.872033
0.86328
0.853368
0.842418
0.830465
0.817811
0.804901
0.7924
0.780899
0.770838
0.762373
0.755449
0.749859
0.745366
0.74174
0.738816
0.736471
0.734639
0.733281
0.73238
0.731928
0.731928
0.73238
0.733281
0.734639
0.736471
0.738816
0.74174
0.745366
0.749859
0.755449
0.762373
0.770838
0.780899
0.7924
0.804901
0.817811
0.830465
0.842418
0.853368
0.86328
0.872033
0.879534
0.885488
0.889668
0.891811
0.906772
0.90424
0.899285
0.892055
0.882878
0.872033
0.859916
0.846794
0.833071
0.819165
0.805672
0.793136
0.782019
0.772531
0.764675
0.758268
0.753073
0.748838
0.74537
0.742522
0.740209
0.73838
0.737014
0.736102
0.735643
0.735643
0.736102
0.737014
0.73838
0.740209
0.742522
0.74537
0.748838
0.753073
0.758268
0.764675
0.772531
0.782019
0.793136
0.805672
0.819165
0.833071
0.846794
0.859916
0.872033
0.882878
0.892055
0.899285
0.90424
0.906772
0.918683
0.915974
0.910553
0.90253
0.892055
0.879534
0.865411
0.850333
0.834922
0.819909
0.805908
0.79343
0.78272
0.773812
0.766526
0.760607
0.755767
0.751773
0.748446
0.745675
0.743395
0.741576
0.740209
0.739294
0.738831
0.738831
0.739294
0.740209
0.741576
0.743395
0.745675
0.748446
0.751773
0.755767
0.760607
0.766526
0.773812
0.78272
0.79343
0.805908
0.819909
0.834922
0.850333
0.865411
0.879534
0.892055
0.90253
0.910553
0.915974
0.918683
0.927337
0.924585
0.919022
0.910553
0.899285
0.885488
0.869807
0.853054
0.836239
0.820265
0.805877
0.79347
0.783146
0.774735
0.767943
0.762424
0.757882
0.754082
0.750874
0.748166
0.745916
0.744109
0.742745
0.741827
0.741363
0.741363
0.741827
0.742745
0.744109
0.745916
0.748166
0.750874
0.754082
0.757882
0.762424
0.767943
0.774735
0.783146
0.79347
0.805877
0.820265
0.836239
0.853054
0.869807
0.885488
0.899285
0.910553
0.919022
0.924585
0.927337
0.932886
0.930166
0.924585
0.915974
0.90424
0.889668
0.872882
0.854953
0.837084
0.820424
0.805749
0.793417
0.783377
0.775339
0.768899
0.763672
0.759337
0.755677
0.75255
0.749888
0.74766
0.745862
0.744499
0.743582
0.743117
0.743117
0.743582
0.744499
0.745862
0.74766
0.749888
0.75255
0.755677
0.759337
0.763672
0.768899
0.775339
0.783377
0.793417
0.805749
0.820424
0.837084
0.854953
0.872882
0.889668
0.90424
0.915974
0.924585
0.930166
0.932886
0.93558
0.932886
0.927337
0.918683
0.906772
0.891811
0.874484
0.855925
0.83751
0.820475
0.805655
0.793358
0.783473
0.775629
0.769375
0.764296
0.76007
0.756478
0.753393
0.750753
0.748535
0.746741
0.745379
0.744461
0.743995
0.743995
0.744461
0.745379
0.746741
0.748535
0.750753
0.753393
0.756478
0.76007
0.764296
0.769375
0.775629
0.783473
0.793358
0.805655
0.820475
0.83751
0.855925
0.874484
0.891811
0.906772
0.918683
0.927337
0.932886
0.93558
SCALARS HU float 1
LOOKUP_TABLE default
0.00405213
0.0111058
0.0150525
0.014032
0.00676825
-0.00683375
-0.0254012
-0.046306
-0.0664013
-0.0829713
-0.0943749
-0.100181
-0.100889
-0.0975194
-0.0912326
-0.0830994
-0.0739726
-0.064465
-0.0549681
-0.0457027
-0.0367645
-0.0281688
-0.0198789
-0.0118279
-0.00393068
0.00393068
0.0118279
0.0198789
0.0281688
0.0367645
0.0457027
0.0549681
0.064465
0.0739726
0.0830994
0.0912326
0.0975194
0.100889
0.100181
0.0943749
0.0829713
0.0664013
0.046306
0.0254012
0.00683375
-0.00676825
-0.014032
-0.0150525
-0.0111058
-0.00405213
0.00356854
0.00971853
0.0129424
0.0115574
0.00444994
-0.00838602
-0.0257138
-0.0451821
-0.0640321
-0.0797964
-0.0909131
-0.0968409
-0.0979181
-0.095
-0.0891525
-0.0813905
-0.0725633
-0.06329
-0.0539852
-0.0448838
-0.036098
-0.0276493
-0.0195067
-0.0116034
-0.00385588
0.00385588
0.0116034
0.0195067
0.0276493
0.036098
0.0448838
0.0539852
0.06329
0.0725633
0.0813905
0.0891525
0.095
0.0979181
0.0968409
0.0909131
0.0797964
0.0640321
0.0451821
0.0257138
0.00838602
-0.00444994
-0.0115574
-0.0129424
-0.00971853
-0.00356854
0.00267257
0.00713794
0.00908062
0.00709881
0.000415336
-0.0109264
-0.0258819
-0.042701
-0.05924
-0.0735284
-0.0841083
-0.0902819
-0.0920606
-0.0900232
-0.0850245
-0.0779964
-0.0697558
-0.0609527
-0.0520274
-0.0432567
-0.034773
-0.0266182
-0.0187671
-0.0111587
-0.00370626
0.00370626
0.0111587
0.0187671
0.0266182
0.034773
0.0432567
0.0520274
0.0609527
0.0697558
0.0779964
0.0850245
0.0900232
0.0920606
0.0902819
0.0841083
0.0735284
0.05924
0.042701
0.0258819
0.0109264
-0.000415336
-0.00709881
-0.00908062
-0.00713794
-0.00267257
0.00149369
0.00381177
0.00417813
0.00166295
-0.00423993
-0.0133907
-0.0251598
-0.0384539
-0.0519798
-0.0643126
-0.0741994
-0.0807094
-0.0834818
-0.0826842
-0.0789152
-0.072948
-0.06558
-0.0574691
-0.0491177
-0.0408381
-0.0328088
-0.0250897
-0.0176732
-0.0104994
-0.00348658
0.00348658
0.0104994
0.0176732
0.0250897
0.0328088
0.0408381
0.0491177
0.0574691
0.06558
0.072948
0.0789152
0.0826842
0.0834818
0.0807094
0.0741994
0.0643126
0.0519798
0.0384539
0.0251598
0.0133907
0.00423993
-0.00166295
-0.00417813
-0.00381177
-0.00149369
0.000281995
0.000406195
-0.000636942
-0.00339008
-0.0080269
-0.0145205
-0.0226192
-0.0320255
-0.0422013
-0.0523809
-0.0614761
-0.0684096
-0.0723758
-0.0731237
-0.0708939
-0.0662992
-0.0600587
-0.052872
-0.0452756
-0.0376563
-0.0302261
-0.0230857
-0.0162384
-0.00963755
-0.00319701
0.00319701
0.00963755
0.0162384
0.0230857
0.0302261
0.0376563
0.0452756
0.052872
0.0600587
0.0662992
0.0708939
0.0731237
0.0723758
0.0684096
0.0614761
0.0523809
0.0422013
0.0320255
0.0226192
0.0145205
0.0080269
0.00339008
0.000636942
-0.000406195
-0.000281995
-0.000682983
-0.00218383
-0.00409083
-0.00649127
-0.00945854
-0.0130346
-0.0174613
-0.0230268
-0.0299373
-0.0379533
-0.0462797
-0.0536684
-0.0589765
-0.0614722
-0.0610539
-0.058088
-0.053235
-0.0471796
-0.040536
-0.0337331
-0.0270543
-0.020626
-0.0144827
-0.00858122
-0.00284529
0.00284529
0.00858122
0.0144827
0.020626
0.0270543
0.0337331
0.040536
0.0471796
0.053235
0.058088
0.0610539
0.0614722
0.0589765
0.0536684
0.0462797
0.0379533
0.0299373
0.0230268
0.0174613
0.0130346
0.00945854
0.00649127
0.00409083
0.00218383
0.000682983
-0.00108137
-0.00317064
-0.00497694
-0.00637365
-0.00730802
-0.008038
-0.00909147
-0.0112624
-0.0152342
-0.0212929
-0.0288821
-0.0367742
-0.0434736
-0.0478738
-0.0494606
-0.04837
-0.0451243
-0.0404264
-0.0349123
-0.0291009
-0.0233141
-0.0177374
-0.0124213
-0.00734577
-0.00243109
0.00243109
0.00734577
0.0124213
0.0177374
0.0233141
0.0291009
0.0349123
0.0404264
0.0451243
0.04837
0.0494606
0.0478738
0.0434736
0.0367742
0.0288821
0.0212929
0.0152342
0.0112624
0.00909147
0.008038
0.00730802
0.00637365
0.00497694
0.00317064
0.00108137
-0.000766725
-0.0020491
-0.00268436
-0.00235435
-0.00106101
0.000866431
0.00265641
0.00328916
0.00173528
-0.00260204
-0.00954261
-0.0179079
-0.02605
-0.0324251
-0.0361829
-0.0371587
-0.035754
-0.0326131
-0.0284341
-0.0237725
-0.0190345
-0.0144371
-0.0100761
-0.00593893
-0.00196305
0.00196305
0.00593893
0.0100761
0.0144371
0.0190345
0.0237725
0.0284341
0.0326131
0.035754
0.0371587
0.0361829
0.0324251
0.02605
0.0179079
0.00954261
0.00260204
-0.00173528
-0.00328916
-0.00265641
-0.000866431
0.00106101
0.00235435
0.00268436
0.0020491
0.000766725
0.000277333
0.00109066
0.00268069
0.0053212
0.00902585
0.0133641
0.0175196
0.0203456
0.0207252
0.0178117
0.0115116
0.00272457
-0.0067799
-0.0152002
-0.0212447
-0.0244827
-0.0251183
-0.0237606
-0.0210999
-0.0177727
-0.0142266
-0.0107485
-0.00745813
-0.00437539
-0.00144057
0.00144057
0.00437539
0.00745813
0.0107485
0.0142266
0.0177727
0.0210999
0.0237606
0.0251183
0.0244827
0.0212447
0.0152002
0.0067799
-0.00272457
-0.0115116
-0.0178117
-0.0207252
-0.0203456
-0.0175196
-0.0133641
-0.00902585
-0.0053212
-0.00268069
-0.00109066
-0.000277333
0.00182809
0.00572887
0.0102591
0.0156764
0.0218999
0.0285274
0.0347281
0.0393872
0.0412816
0.0395635
0.0338723
0.0248906
0.0141747
0.00374211
-0.00470854
-0.0103579
-0.0132396
-0.0138569
-0.0129254
-0.011102
-0.00891328
-0.00668423
-0.00458762
-0.00266164
-0.000871811
0.000871811
0.00266164
0.00458762
0.00668423
0.00891328
0.011102
0.0129254
0.0138569
0.0132396
0.0103579
0.00470854
-0.00374211
-0.0141747
-0.0248906
-0.0338723
-0.0395635
-0.0412816
-0.0393872
-0.0347281
-0.0285274
-0.0218999
-0.0156764
-0.0102591
-0.00572887
-0.00182809
0.00363967
0.0110496
0.018897
0.0272775
0.0361124
0.0449709
0.053115
0.0594596
0.0627853
0.0621592
0.0571388
0.0480713
0.0364071
0.0241928
0.0133767
0.00513274
-0.000178982
-0.00298053
-0.00395353
-0.00381277
-0.00312325
-0.00227778
-0.00148279
-0.000816206
-0.000257537
0.000257537
0.000816206
0.00148279
0.00227778
0.00312325
0.00381277
0.00395353
0.00298053
0.000178982
-0.00513274
-0.0133767
-0.0241928
-0.0364071
-0.0480713
-0.0571388
-0.0621592
-0.0627853
-0.0594596
-0.053115
-0.0449709
-0.0361124
-0.0272775
-0.018897
-0.0110496
-0.00363967
0.00543165
0.0163572
0.0274688
0.0388085
0.0501984
0.0612742
0.0713358
0.0794068
0.0842595
0.0848358
0.0806104
0.0717406
0.0594061
0.0456408
0.0325722
0.021808
0.0139322
0.00877641
0.00571284
0.00401888
0.00306447
0.00241364
0.00180635
0.00113576
0.000388575
-0.000388575
-0.00113576
-0.00180635
-0.00241364
-0.00306447
-0.00401888
-0.00571284
-0.00877641
-0.0139322
-0.021808
-0.0325722
-0.0456408
-0.0594061
-0.0717406
-0.0806104
-0.0848358
-0.0842595
-0.0794068
-0.0713358
-0.0612742
-0.0501984
-0.0388085
-0.0274688
-0.0163572
-0.00543165
0.00706349
0.0211457
0.0352536
0.0493
0.0631155
0.0762997
0.0882638
0.0980786
0.1046
0.106583
0.103424
0.0950416
0.0823993
0.0673981
0.0523686
0.0391471
0.028721
0.0211354
0.015875
0.0122211
0.00952045
0.0072823
0.00520737
0.00314546
0.00105465
-0.00105465
-0.00314546
-0.00520737
-0.0072823
-0.00952045
-0.0122211
-0.015875
-0.0211354
-0.028721
-0.0391471
-0.0523686
-0.0673981
-0.0823993
-0.0950416
-0.103424
-0.106583
-0.1046
-0.0980786
-0.0882638
-0.0762997
-0.0631155
-0.0493
-0.0352536
-0.0211457
-0.00706349
0.00843863
0.0252268
0.0418885
0.0583211
0.0742871