# vtk DataFile Version 2.0
HPC Tutorials: Michael Bader, Kaveh Rahnema, Oliver Meister
ASCII
DATASET RECTILINEAR_GRID
DIMENSIONS 51 51 1
X_COORDINATES 51 float
0
0.02
0.04
0.06
0.08
0.1
0.12
0.14
0.16
0.18
0.2
0.22
0.24
0.26
0.28
0.3
0.32
0.34
0.36
0.38
0.4
0.42
0.44
0.46
0.48
0.5
0.52
0.54
0.56
0.58
0.6
0.62
0.64
0.66
0.68
0.7
0.72
0.74
0.76
0.78
0.8
0.82
0.84
0.86
0.88
0.9
0.92
0.94
0.96
0.98
1
Y_COORDINATES 51 float
0
0.02
0.04
0.06
0.08
0.1
0.12
0.14
0.16
0.18
0.2
0.22
0.24
0.26
0.28
0.3
0.32
0.34
0.36
0.38
0.4
0.42
0.44
0.46
0.48
0.5
0.52
0.54
0.56
0.58
0.6
0.62
0.64
0.66
0.68
0.7
0.72
0.74
0.76
0.78
0.8
0.82
0.84
0.86
0.88
0.9
0.92
0.94
0.96
0.98
1
Z_COORDINATES 1 float
0
CELL_DATA 2500
SCALARS H float 1
LOOKUP_TABLE default
0.709715
0.709919
0.710273
0.710772
0.711412
0.712191
0.713106
0.714151
0.71532
0.7166
0.717971
0.7194
0.720832
0.722189
0.723354
0.724165
0.72441
0.723836
0.722185
0.71926
0.715038
0.709821
0.704332
0.699669
0.697018
0.697018
0.699669
0.704332
0.709821
0.715038
0.71926
0.722185
0.723836
0.72441
0.724165
0.723354
0.722189
0.720832
0.7194
0.717971
0.7166
0.71532
0.714151
0.713106
0.712191
0.711412
0.710772
0.710273
0.709919
0.709715
0.709919
0.710131
0.7105
0.711022
0.711693
0.71251
0.713469
0.714565
0.715789
0.717127
0.718556
0.720041
0.721527
0.72293
0.724133
0.724974
0.725243
0.724694
0.72308
0.720218
0.716101
0.711033
0.705724
0.701232
0.698687
0.698687
0.701232
0.705724
0.711033
0.716101
0.720218
0.72308
0.724694
0.725243
0.724974
0.724133
0.72293
0.721527
0.720041
0.718556
0.717127
0.715789
0.714565
0.713469
0.71251
0.711693
0.711022
0.7105
0.710131
0.709919
0.710273
0.7105
0.7109
0.711469
0.712202
0.713095
0.714144
0.715341
0.716674
0.718128
0.719674
0.721272
0.722861
0.724355
0.725632
0.726532
0.726848
0.726351
0.724813
0.72208
0.718172
0.713402
0.708448
0.70429
0.701952
0.701952
0.70429
0.708448
0.713402
0.718172
0.72208
0.724813
0.726351
0.726848
0.726532
0.725632
0.724355
0.722861
0.721272
0.719674
0.718128
0.716674
0.715341
0.714144
0.713095
0.712202
0.711469
0.7109
0.7105
0.710273
0.710772
0.711022
0.711469
0.712107
0.712933
0.71394
0.715122
0.716468
0.717963
0.719584
0.721298
0.723058
0.724794
0.726414
0.727794
0.728772
0.729154
0.728728
0.727301
0.724762
0.721166
0.716834
0.712398
0.708721
0.706679
0.706679
0.708721
0.712398
0.716834
0.721166
0.724762
0.727301
0.728728
0.729154
0.728772
0.727794
0.726414
0.724794
0.723058
0.721298
0.719584
0.717963
0.716468
0.715122
0.71394
0.712933
0.712107
0.711469
0.711022
0.710772
0.711412
0.711693
0.712202
0.712933
0.71388
0.715037
0.716392
0.717931
0.719633
0.721468
0.723393
0.725352
0.727267
0.729037
0.730533
0.731599
0.732052
0.731712
0.730429
0.728144
0.724957
0.721192
0.717415
0.714344
0.712671
0.712671
0.714344
0.717415
0.721192
0.724957
0.728144
0.730429
0.731712
0.732052
0.731599
0.730533
0.729037
0.727267
0.725352
0.723393
0.721468
0.719633
0.717931
0.716392
0.715037
0.71388
0.712933
0.712202
0.711693
0.711412
0.712191
0.71251
0.713095
0.71394
0.715037
0.716375
0.717939
0.719709
0.721656
0.72374
0.725908
0.72809
0.730199
0.732125
0.733737
0.734884
0.735407
0.73516
0.73405
0.732077
0.729388
0.726303
0.7233
0.72093
0.719679
0.719679
0.72093
0.7233
0.726303
0.729388
0.732077
0.73405
0.73516
0.735407
0.734884
0.733737
0.732125
0.730199
0.72809
0.725908
0.72374
0.721656
0.719709
0.717939
0.716375
0.715037
0.71394
0.713095
0.71251
0.712191
0.713106
0.713469
0.714144
0.715122
0.716392
0.717939
0.719743
0.721773
0.723993
0.726348
0.728774
0.731188
0.733489
0.73556
0.73727
0.738481
0.739058
0.738908
0.737998
0.736395
0.734285
0.731972
0.72983
0.728224
0.727426
0.727426
0.728224
0.72983
0.731972
0.734285
0.736395
0.737998
0.738908
0.739058
0.738481
0.73727
0.73556
0.733489
0.731188
0.728774
0.726348
0.723993
0.721773
0.719743
0.717939
0.716392
0.715122
0.714144
0.713469
0.713106
0.714151
0.714565
0.715341
0.716468
0.717931
0.719709
0.721773
0.724084
0.726591
0.729226
0.731909
0.734542
0.737014
0.739201
0.740977
0.74222
0.742837
0.742786
0.742107
0.74093
0.739472
0.738004
0.736777
0.735964
0.735629
0.735629
0.735964
0.736777
0.738004
0.739472
0.74093
0.742107
0.742786
0.742837
0.74222
0.740977
0.739201
0.737014
0.734542
0.731909
0.729226
0.726591
0.724084
0.721773
0.719709
0.717931
0.716468
0.715341
0.714565
0.714151
0.71532
0.715789
0.716674
0.717963
0.719633
0.721656
0.723993
0.726591
0.729383
0.732289
0.735208
0.738031
0.740634
0.742893
0.744691
0.745934
0.746574
0.746635
0.746225
0.745533
0.744793
0.74422
0.743933
0.743913
0.744031
0.744031
0.743913
0.743933
0.74422
0.744793
0.745533
0.746225
0.746635
0.746574
0.745934
0.744691
0.742893
0.740634
0.738031
0.735208
0.732289
0.729383
0.726591
0.723993
0.721656
0.719633
0.717963
0.716674
0.715789
0.71532
0.7166
0.717127
0.718128
0.719584
0.721468
0.72374
0.726348
0.729226
0.732289
0.735436
0.738555
0.741518
0.7442
0.746476
0.748251
0.749463
0.750122
0.75032
0.750232
0.750091
0.750126
0.750479
0.751128
0.751875
0.752423
0.752423
0.751875
0.751128
0.750479
0.750126
0.750091
0.750232
0.75032
0.750122
0.749463
0.748251
0.746476
0.7442
0.741518
0.738555
0.735436
0.732289
0.729226
0.726348
0.72374
0.721468
0.719584
0.718128
0.717127
0.7166
0.717971
0.718556
0.719674
0.721298
0.723393
0.725908
0.728774
0.731909
0.735208
0.738555
0.741818
0.744864
0.74756
0.7498
0.75151
0.752679
0.753375
0.753758
0.754061
0.75454
0.755398
0.756687
0.758245
0.759713
0.760657
0.760657
0.759713
0.758245
0.756687
0.755398
0.75454
0.754061
0.753758
0.753375
0.752679
0.75151
0.7498
0.74756
0.744864
0.741818
0.738555
0.735208
0.731909
0.728774
0.725908
0.723393
0.721298
0.719674
0.718556
0.717971
0.7194
0.720041
0.721272
0.723058
0.725352
0.72809
0.731188
0.734542
0.738031
0.741518
0.744864
0.747924
0.750579
0.752736
0.754363
0.755501
0.756282
0.756925
0.757702
0.758873
0.760591
0.762808
0.765229
0.76736
0.768659
0.768659
0.76736
0.765229
0.762808
0.760591
0.758873
0.757702
0.756925
0.756282
0.755501
0.754363
0.752736
0.750579
0.747924
0.744864
0.741518
0.738031
0.734542
0.731188
0.72809
0.725352
0.723058
0.721272
0.720041
0.7194
0.720832
0.721527
0.722861
0.724794
0.727267
0.730199
0.733489
0.737014
0.740634
0.7442
0.74756
0.750579
0.753144
0.755201
0.756758
0.757916
0.758862
0.759864
0.761212
0.763143
0.765743
0.768861
0.772085
0.774812
0.776423
0.776423
0.774812
0.772085
0.768861
0.765743
0.763143
0.761212
0.759864
0.758862
0.757916
0.756758
0.755201
0.753144
0.750579
0.74756
0.7442
0.740634
0.737014
0.733489
0.730199
0.727267
0.724794
0.722861
0.721527
0.720832
0.722189
0.72293
0.724355
0.726414
0.729037
0.732125
0.73556
0.739201
0.742893
0.746476
0.7498
0.752736
0.755201
0.757175
0.75872
0.759987
0.761214
0.762692
0.764707
0.767454
0.77094
0.774919
0.778877
0.78213
0.784011
0.784011
0.78213
0.778877
0.774919
0.77094
0.767454
0.764707
0.762692
0.761214
0.759987
0.75872
0.757175
0.755201
0.752736
0.7498
0.746476
0.742893
0.739201
0.73556
0.732125
0.729037
0.726414
0.724355
0.72293
0.722189
0.723354
0.724133
0.725632
0.727794
0.730533
0.733737
0.73727
0.740977
0.744691
0.748251
0.75151
0.754363
0.756758
0.75872
0.760356
0.761864
0.763509
0.765586
0.768355
0.771955
0.776315
0.7811
0.78572
0.789434
0.791545
0.791545
0.789434
0.78572
0.7811
0.776315
0.771955
0.768355
0.765586
0.763509
0.761864
0.760356
0.75872
0.756758
0.754363
0.75151
0.748251
0.744691
0.740977
0.73727
0.733737
0.730533
0.727794
0.725632
0.724133
0.723354
0.724165
0.724974
0.726532
0.728772
0.731599
0.734884
0.738481
0.74222
0.745934
0.749463
0.752679
0.755501
0.757916
0.759987
0.761864
0.763769
0.765978
0.768768
0.772358
0.776825
0.782028
0.78756
0.792772
0.796886
0.799192
0.799192
0.796886
0.792772
0.78756
0.782028
0.776825
0.772358
0.768768
0.765978
0.763769
0.761864
0.759987
0.757916
0.755501
0.752679
0.749463
0.745934
0.74222
0.738481
0.734884
0.731599
0.728772
0.726532
0.724974
0.724165
0.72441
0.725243
0.726848
0.729154
0.732052
0.735407
0.739058
0.742837
0.746574
0.750122
0.753375
0.756282
0.758862
0.761214
0.763509
0.765978
0.768884
0.772476
0.776925
0.782252
0.788254
0.794469
0.800206
0.804666
0.807139
0.807139
0.804666
0.800206
0.794469
0.788254
0.782252
0.776925
0.772476
0.768884
0.765978
0.763509
0.761214
0.758862
0.756282
0.753375
0.750122
0.746574
0.742837
0.739058
0.735407
0.732052
0.729154
0.726848
0.725243
0.72441
0.723836
0.724694
0.726351
0.728728
0.731712
0.73516
0.738908
0.742786
0.746635
0.75032
0.753758
0.756925
0.759864
0.762692
0.765586
0.768768
0.772476
0.776923
0.782236
0.788392
0.795139
0.801973
0.808175
0.812935
0.81555
0.81555
0.812935
0.808175
0.801973
0.795139
0.788392
0.782236
0.776923
0.772476
0.768768
0.765586
0.762692
0.759864
0.756925
0.753758
0.75032
0.746635
0.742786
0.738908
0.73516
0.731712
0.728728
0.726351
0.724694
0.723836
0.722185
0.72308
0.724813
0.727301
0.730429
0.73405
0.737998
0.742107
0.746225
0.750232
0.754061
0.757702
0.761212
0.764707
0.768355
0.772358
0.776925
0.782236
0.788387
0.795317
0.802745
0.810133
0.816742
0.821762
0.824498
0.824498
0.821762
0.816742
0.810133
0.802745
0.795317
0.788387
0.782236
0.776925
0.772358
0.768355
0.764707
0.761212
0.757702
0.754061
0.750232
0.746225
0.742107
0.737998
0.73405
0.730429
0.727301
0.724813
0.72308
0.722185
0.71926
0.720218
0.72208
0.724762
0.728144
0.732077
0.736395
0.74093
0.745533
0.750091
0.75454
0.758873
0.763143
0.767454
0.771955
0.776825
0.782252
0.788392
0.795317
0.802947
0.810977
0.818847
0.825806
0.831045
0.833882
0.833882
0.831045
0.825806
0.818847
0.810977
0.802947
0.795317
0.788392
0.782252
0.776825
0.771955
0.767454
0.763143
0.758873
0.75454
0.750091
0.745533
0.74093
0.736395
0.732077
0.728144
0.724762
0.72208
0.720218
0.71926
0.715038
0.716101
0.718172
0.721166
0.724957
0.729388
0.734285
0.739472
0.744793
0.750126
0.755398
0.760591
0.765743
0.77094
0.776315
0.782028
0.788254
0.795139
0.802745
0.810977
0.819514
0.827787
0.835033
0.840449
0.843366
0.843366
0.840449
0.835033
0.827787
0.819514
0.810977
0.802745
0.795139
0.788254
0.782028
0.776315
0.77094
0.765743
0.760591
0.755398
0.750126
0.744793
0.739472
0.734285
0.729388
0.724957
0.721166
0.718172
0.716101
0.715038
0.709821
0.711033
0.713402
0.716834
0.721192
0.726303
0.731972
0.738004
0.74422
0.750479
0.756687
0.762808
0.768861
0.774919
0.7811
0.78756
0.794469
0.801973
0.810133
0.818847
0.827787
0.836375
0.84384
0.849387
0.852362
0.852362
0.849387
0.84384
0.836375
0.827787
0.818847
0.810133
0.801973
0.794469
0.78756
0.7811
0.774919
0.768861
0.762808
0.756687
0.750479
0.74422
0.738004
0.731972
0.726303
0.721192
0.716834
0.713402
0.711033
0.709821
0.704332
0.705724
0.708448
0.712398
0.717415
0.7233
0.72983
0.736777
0.743933
0.751128
0.758245
0.765229
0.772085
0.778877
0.78572
0.792772
0.800206
0.808175
0.816742
0.825806
0.835033
0.84384
0.851456
0.857091
0.860103
0.860103
0.857091
0.851456
0.84384
0.835033
0.825806
0.816742
0.808175
0.800206
0.792772
0.78572
0.778877
0.772085
0.765229
0.758245
0.751128
0.743933
0.736777
0.72983
0.7233
0.717415
0.712398
0.708448
0.705724
0.704332
0.699669
0.701232
0.70429
0.708721
0.714344
0.72093
0.728224
0.735964
0.743913
0.751875
0.759713
0.76736
0.774812
0.78213
0.789434
0.796886
0.804666
0.812935
0.821762
0.831045
0.840449
0.849387
0.857091
0.862774
0.865806
0.865806
0.862774
0.857091
0.849387
0.840449
0.831045
0.821762
0.812935
0.804666
0.796886
0.789434
0.78213
0.774812
0.76736
0.759713
0.751875
0.743913
0.735964
0.728224
0.72093
0.714344
0.708721
0.70429
0.701232
0.699669
0.697018
0.698687
0.701952
0.706679
0.712671
0.719679
0.727426
0.735629
0.744031
0.752423
0.760657
0.768659
0.776423
0.784011
0.791545
0.799192
0.807139
0.81555
0.824498
0.833882
0.843366
0.852362
0.860103
0.865806
0.868844
0.868844
0.865806
0.860103
0.852362
0.843366
0.833882
0.824498
0.81555
0.807139
0.799192
0.791545
0.784011
0.776423
0.768659
0.760657
0.752423
0.744031
0.735629
0.727426
0.719679
0.712671
0.706679
0.701952
0.698687
0.697018
0.697018
0.698687
0.701952
0.706679
0.712671
0.719679
0.727426
0.735629
0.744031
0.752423
0.760657
0.768659
0.776423
0.784011
0.791545
0.799192
0.807139
0.81555
0.824498
0.833882
0.843366
0.852362
0.860103
0.865806
0.868844
0.868844
0.865806
0.860103
0.852362
0.843366
0.833882
0.824498
0.81555
0.807139
0.799192
0.791545
0.784011
0.776423
0.768659
0.760657
0.752423
0.744031
0.735629
0.727426
0.719679
0.712671
0.706679
0.701952
0.698687
0.697018
0.699669
0.701232
0.70429
0.708721
0.714344
0.72093
0.728224
0.735964
0.743913
0.751875
0.759713
0.76736
0.774812
0.78213
0.789434
0.796886
0.804666
0.812935
0.821762
0.831045
0.840449
0.849387
0.857091
0.862774
0.865806
0.865806
0.862774
0.857091
0.849387
0.840449
0.831045
0.821762
0.812935
0.804666
0.796886
0.789434
0.78213
0.774812
0.76736
0.759713
0.751875
0.743913
0.735964
0.728224
0.72093
0.714344
0.708721
0.70429
0.701232
0.699669
0.704332
0.705724
0.708448
0.712398
0.717415
0.7233
0.72983
0.736777
0.743933
0.751128
0.758245
0.765229
0.772085
0.778877
0.78572
0.792772
0.800206
0.808175
0.816742
0.825806
0.835033
0.84384
0.851456
0.857091
0.860103
0.860103
0.857091
0.851456
0.84384
0.835033
0.825806
0.816742
0.808175
0.800206
0.792772
0.78572
0.778877
0.772085
0.765229
0.758245
0.751128
0.743933
0.736777
0.72983
0.7233
0.717415
0.712398
0.708448
0.705724
0.704332
0.709821
0.711033
0.713402
0.716834
0.721192
0.726303
0.731972
0.738004
0.74422
0.750479
0.756687
0.762808
0.768861
0.774919
0.7811
0.78756
0.794469
0.801973
0.810133
0.818847
0.827787
0.836375
0.84384
0.849387
0.852362
0.852362
0.849387
0.84384
0.836375
0.827787
0.818847
0.810133
0.801973
0.794469
0.78756
0.7811
0.774919
0.768861
0.762808
0.756687
0.750479
0.74422
0.738004
0.731972
0.726303
0.721192
0.716834
0.713402
0.711033
0.709821
0.715038
0.716101
0.718172
0.721166
0.724957
0.729388
0.734285
0.739472
0.744793
0.750126
0.755398
0.760591
0.765743
0.77094
0.776315
0.782028
0.788254
0.795139
0.802745
0.810977
0.819514
0.827787
0.835033
0.840449
0.843366
0.843366
0.840449
0.835033
0.827787
0.819514
0.810977
0.802745
0.795139
0.788254
0.782028
0.776315
0.77094
0.765743
0.760591
0.755398
0.750126
0.744793
0.739472
0.734285
0.729388
0.724957
0.721166
0.718172
0.716101
0.715038
0.71926
0.720218
0.72208
0.724762
0.728144
0.732077
0.736395
0.74093
0.745533
0.750091
0.75454
0.758873
0.763143
0.767454
0.771955
0.776825
0.782252
0.788392
0.795317
0.802947
0.810977
0.818847
0.825806
0.831045
0.833882
0.833882
0.831045
0.825806
0.818847
0.810977
0.802947
0.795317
0.788392
0.782252
0.776825
0.771955
0.767454
0.763143
0.758873
0.75454
0.750091
0.745533
0.74093
0.736395
0.732077
0.728144
0.724762
0.72208
0.720218
0.71926
0.722185
0.72308
0.724813
0.727301
0.730429
0.73405
0.737998
0.742107
0.746225
0.750232
0.754061
0.757702
0.761212
0.764707
0.768355
0.772358
0.776925
0.782236
0.788387
0.795317
0.802745
0.810133
0.816742
0.821762
0.824498
0.824498
0.821762
0.816742
0.810133
0.802745
0.795317
0.788387
0.782236
0.776925
0.772358
0.768355
0.764707
0.761212
0.757702
0.754061
0.750232
0.746225
0.742107
0.737998
0.73405
0.730429
0.727301
0.724813
0.72308
0.722185
0.723836
0.724694
0.726351
0.728728
0.731712
0.73516
0.738908
0.742786
0.746635
0.75032
0.753758
0.756925
0.759864
0.762692
0.765586
0.768768
0.772476
0.776923
0.782236
0.788392
0.795139
0.801973
0.808175
0.812935
0.81555
0.81555
0.812935
0.808175
0.801973
0.795139
0.788392
0.782236
0.776923
0.772476
0.768768
0.765586
0.762692
0.759864
0.756925
0.753758
0.75032
0.746635
0.742786
0.738908
0.73516
0.731712
0.728728
0.726351
0.724694
0.723836
0.72441
0.725243
0.726848
0.729154
0.732052
0.735407
0.739058
0.742837
0.746574
0.750122
0.753375
0.756282
0.758862
0.761214
0.763509
0.765978
0.768884
0.772476
0.776925
0.782252
0.788254
0.794469
0.800206
0.804666
0.807139
0.807139
0.804666
0.800206
0.794469
0.788254
0.782252
0.776925
0.772476
0.768884
0.765978
0.763509
0.761214
0.758862
0.756282
0.753375
0.750122
0.746574
0.742837
0.739058
0.735407
0.732052
0.729154
0.726848
0.725243
0.72441
0.724165
0.724974
0.726532
0.728772
0.731599
0.734884
0.738481
0.74222
0.745934
0.749463
0.752679
0.755501
0.757916
0.759987
0.761864
0.763769
0.765978
0.768768
0.772358
0.776825
0.782028
0.78756
0.792772
0.796886
0.799192
0.799192
0.796886
0.792772
0.78756
0.782028
0.776825
0.772358
0.768768
0.765978
0.763769
0.761864
0.759987
0.757916
0.755501
0.752679
0.749463
0.745934
0.74222
0.738481
0.734884
0.731599
0.728772
0.726532
0.724974
0.724165
0.723354
0.724133
0.725632
0.727794
0.730533
0.733737
0.73727
0.740977
0.744691
0.748251
0.75151
0.754363
0.756758
0.75872
0.760356
0.761864
0.763509
0.765586
0.768355
0.771955
0.776315
0.7811
0.78572
0.789434
0.791545
0.791545
0.789434
0.78572
0.7811
0.776315
0.771955
0.768355
0.765586
0.763509
0.761864
0.760356
0.75872
0.756758
0.754363
0.75151
0.748251
0.744691
0.740977
0.73727
0.733737
0.730533
0.727794
0.725632
0.724133
0.723354
0.722189
0.72293
0.724355
0.726414
0.729037
0.732125
0.73556
0.739201
0.742893
0.746476
0.7498
0.752736
0.755201
0.757175
0.75872
0.759987
0.761214
0.762692
0.764707
0.767454
0.77094
0.774919
0.778877
0.78213
0.784011
0.784011
0.78213
0.778877
0.774919
0.77094
0.767454
0.764707
0.762692
0.761214
0.759987
0.75872
0.757175
0.755201
0.752736
0.7498
0.746476
0.742893
0.739201
0.73556
0.732125
0.729037
0.726414
0.724355
0.72293
0.722189
0.720832
0.721527
0.722861
0.724794
0.727267
0.730199
0.733489
0.737014
0.740634
0.7442
0.74756
0.750579
0.753144
0.755201
0.756758
0.757916
0.758862
0.759864
0.761212
0.763143
0.765743
0.768861
0.772085
0.774812
0.776423
0.776423
0.774812
0.772085
0.768861
0.765743
0.763143
0.761212
0.759864
0.758862
0.757916
0.756758
0.755201
0.753144
0.750579
0.74756
0.7442
0.740634
0.737014
0.733489
0.730199
0.727267
0.724794
0.722861
0.721527
0.720832
0.7194
0.720041
0.721272
0.723058
0.725352
0.72809
0.731188
0.734542
0.738031
0.741518
0.744864
0.747924
0.750579
0.752736
0.754363
0.755501
0.756282
0.756925
0.757702
0.758873
0.760591
0.762808
0.765229
0.76736
0.768659
0.768659
0.76736
0.765229
0.762808
0.760591
0.758873
0.757702
0.756925
0.756282
0.755501
0.754363
0.752736
0.750579
0.747924
0.744864
0.741518
0.738031
0.734542
0.731188
0.72809
0.725352
0.723058
0.721272
0.720041
0.7194
0.717971
0.718556
0.719674
0.721298
0.723393
0.725908
0.728774
0.731909
0.735208
0.738555
0.741818
0.744864
0.74756
0.7498
0.75151
0.752679
0.753375
0.753758
0.754061
0.75454
0.755398
0.756687
0.758245
0.759713
0.760657
0.760657
0.759713
0.758245
0.756687
0.755398
0.75454
0.754061
0.753758
0.753375
0.752679
0.75151
0.7498
0.74756
0.744864
0.741818
0.738555
0.735208
0.731909
0.728774
0.725908
0.723393
0.721298
0.719674
0.718556
0.717971
0.7166
0.717127
0.718128
0.719584
0.721468
0.72374
0.726348
0.729226
0.732289
0.735436
0.738555
0.741518
0.7442
0.746476
0.748251
0.749463
0.750122
0.75032
0.750232
0.750091
0.750126
0.750479
0.751128
0.751875
0.752423
0.752423
0.751875
0.751128
0.750479
0.750126
0.750091
0.750232
0.75032
0.750122
0.749463
0.748251
0.746476
0.7442
0.741518
0.738555
0.735436
0.732289
0.729226
0.726348
0.72374
0.721468
0.719584
0.718128
0.717127
0.7166
0.71532
0.715789
0.716674
0.717963
0.719633
0.721656
0.723993
0.726591
0.729383
0.732289
0.735208
0.738031
0.740634
0.742893
0.744691
0.745934
0.746574
0.746635
0.746225
0.745533
0.744793
0.74422
0.743933
0.743913
0.744031
0.744031
0.743913
0.743933
0.74422
0.744793
0.745533
0.746225
0.746635
0.746574
0.745934
0.744691
0.742893
0.740634
0.738031
0.735208
0.732289
0.729383
0.726591
0.723993
0.721656
0.719633
0.717963
0.716674
0.715789
0.71532
0.714151
0.714565
0.715341
0.716468
0.717931
0.719709
0.721773
0.724084
0.726591
0.729226
0.731909
0.734542
0.737014
0.739201
0.740977
0.74222
0.742837
0.742786
0.742107
0.74093
0.739472
0.738004
0.736777
0.735964
0.735629
0.735629
0.735964
0.736777
0.738004
0.739472
0.74093
0.742107
0.742786
0.742837
0.74222
0.740977
0.739201
0.737014
0.734542
0.731909
0.729226
0.726591
0.724084
0.721773
0.719709
0.717931
0.716468
0.715341
0.714565
0.714151
0.713106
0.713469
0.714144
0.715122
0.716392
0.717939
0.719743
0.721773
0.723993
0.726348
0.728774
0.731188
0.733489
0.73556
0.73727
0.738481
0.739058
0.738908
0.737998
0.736395
0.734285
0.731972
0.72983
0.728224
0.727426
0.727426
0.728224
0.72983
0.731972
0.734285
0.736395
0.737998
0.738908
0.739058
0.738481
0.73727
0.73556
0.733489
0.731188
0.728774
0.726348
0.723993
0.721773
0.719743
0.717939
0.716392
0.715122
0.714144
0.713469
0.713106
0.712191
0.71251
0.713095
0.71394
0.715037
0.716375
0.717939
0.719709
0.721656
0.72374
0.725908
0.72809
0.730199
0.732125
0.733737
0.734884
0.735407
0.73516
0.73405
0.732077
0.729388
0.726303
0.7233
0.72093
0.719679
0.719679
0.72093
0.7233
0.726303
0.729388
0.732077
0.73405
0.73516
0.735407
0.734884
0.733737
0.732125
0.730199
0.72809
0.725908
0.72374
0.721656
0.719709
0.717939
0.716375
0.715037
0.71394
0.713095
0.71251
0.712191
0.711412
0.711693
0.712202
0.712933
0.71388
0.715037
0.716392
0.717931
0.719633
0.721468
0.723393
0.725352
0.727267
0.729037
0.730533
0.731599
0.732052
0.731712
0.730429
0.728144
0.724957
0.721192
0.717415
0.714344
0.712671
0.712671
0.714344
0.717415
0.721192
0.724957
0.728144
0.730429
0.731712
0.732052
0.731599
0.730533
0.729037
0.727267
0.725352
0.723393
0.721468
0.719633
0.717931
0.716392
0.715037
0.71388
0.712933
0.712202
0.711693
0.711412
0.710772
0.711022
0.711469
0.712107
0.712933
0.71394
0.715122
0.716468
0.717963
0.719584
0.721298
0.723058
0.724794
0.726414
0.727794
0.728772
0.729154
0.728728
0.727301
0.724762
0.721166
0.716834
0.712398
0.708721
0.706679
0.706679
0.708721
0.712398
0.716834
0.721166
0.724762
0.727301
0.728728
0.729154
0.728772
0.727794
0.726414
0.724794
0.723058
0.721298
0.719584
0.717963
0.716468
0.715122
0.71394
0.712933
0.712107
0.711469
0.711022
0.710772
0.710273
0.7105
0.7109
0.711469
0.712202
0.713095
0.714144
0.715341
0.716674
0.718128
0.719674
0.721272
0.722861
0.724355
0.725632
0.726532
0.726848
0.726351
0.724813
0.72208
0.718172
0.713402
0.708448
0.70429
0.701952
0.701952
0.70429
0.708448
0.713402
0.718172
0.72208
0.724813
0.726351
0.726848
0.726532
0.725632
0.724355
0.722861
0.721272
0.719674
0.718128
0.716674
0.715341
0.714144
0.713095
0.712202
0.711469
0.7109
0.7105
0.710273
0.709919
0.710131
0.7105
0.711022
0.711693
0.71251
0.713469
0.714565
0.715789
0.717127
0.718556
0.720041
0.721527
0.72293
0.724133
0.724974
0.725243
0.724694
0.72308
0.720218
0.716101
0.711033
0.705724
0.701232
0.698687
0.698687
0.701232
0.705724
0.711033
0.716101
0.720218
0.72308
0.724694
0.725243
0.724974
0.724133
0.72293
0.721527
0.720041
0.718556
0.717127
0.715789
0.714565
0.713469
0.71251
0.711693
0.711022
0.7105
0.710131
0.709919
0.709715
0.709919
0.710273
0.710772
0.711412
0.712191
0.713106
0.714151
0.71532
0.7166
0.717971
0.7194
0.720832
0.722189
0.723354
0.724165
0.72441
0.723836
0.722185
0.71926
0.715038
0.709821
0.704332
0.699669
0.697018
0.697018
0.699669
0.704332
0.709821
0.715038
0.71926
0.722185
0.723836
0.72441
0.724165
0.723354
0.722189
0.720832
0.7194
0.717971
0.7166
0.71532
0.714151
0.713106
0.712191
0.711412
0.710772
0.710273
0.709919
0.709715
SCALARS HU float 1
LOOKUP_TABLE default
0.0111803
0.0333197
0.0552034
0.076664
0.0975418
0.117687
0.136961
0.15524
0.17241
0.188365
0.202997
0.216183
0.227759
0.237491
0.245028
0.249841
0.251174
0.248022
0.239169
0.223323
0.199397
0.166898
0.126265
0.0789329
0.0270861
-0.0270861
-0.0789329
-0.126265
-0.166898
-0.199397
-0.223323
-0.239169
-0.248022
-0.251174
-0.249841
-0.245028
-0.237491
-0.227759
-0.216183
-0.202997
-0.188365
-0.17241
-0.15524
-0.136961
-0.117687
-0.0975418
-0.076664
-0.0552034
-0.0333197
-0.0111803
0.0111372
0.0331922
0.0549927
0.0763725
0.0971722
0.117243
0.136446
0.154658
0.171765
0.187659
0.202231
0.215354
0.226864
0.236519
0.243967
0.248677
0.249895
0.246626
0.237677
0.221787
0.197906
0.165571
0.12522
0.0782662
0.0268537
-0.0268537
-0.0782662
-0.12522
-0.165571
-0.197906
-0.221787
-0.237677
-0.246626
-0.249895
-0.248677
-0.243967
-0.236519
-0.226864
-0.215354
-0.202231
-0.187659
-0.171765
-0.154658
-0.136446
-0.117243
-0.0971722
-0.0763725
-0.0549927
-0.0331922
-0.0111372
0.0110512
0.0329363
0.0545705
0.0757879
0.096431
0.116351
0.135412
0.153488
0.170466
0.186235
0.200684
0.213681
0.225052
0.234554
0.241823
0.246327
0.247317
0.243822
0.234688
0.21872
0.194938
0.162933
0.123149
0.076944
0.026393
-0.026393
-0.076944
-0.123149
-0.162933
-0.194938
-0.21872
-0.234688
-0.243822
-0.247317
-0.246327
-0.241823
-0.234554
-0.225052
-0.213681
-0.200684
-0.186235
-0.170466
-0.153488
-0.135412
-0.116351
-0.096431
-0.0757879
-0.0545705
-0.0329363
-0.0110512
0.0109224
0.0325553
0.0539407
0.0749157
0.0953235
0.115018
0.133862
0.151732
0.168512
0.18409
0.198348
0.211147
0.222307
0.231571
0.23857
0.242764
0.243419
0.239594
0.230203
0.214139
0.190527
0.159027
0.120085
0.0749902
0.025712
-0.025712
-0.0749902
-0.120085
-0.159027
-0.190527
-0.214139
-0.230203
-0.239594
-0.243419
-0.242764
-0.23857
-0.231571
-0.222307
-0.211147
-0.198348
-0.18409
-0.168512
-0.151732
-0.133862
-0.115018
-0.0953235
-0.0749157
-0.0539407
-0.0325553
-0.0109224
0.0107531
0.0320517
0.0531089
0.0737619
0.093857
0.113248
0.131802
0.149391
0.1659
0.181214
0.195207
0.207734
0.218601
0.227542
0.234173
0.23796
0.238177
0.233939
0.224238
0.208086
0.184731
0.153917
0.116088
0.0724411
0.0248242
-0.0248242
-0.0724411
-0.116088
-0.153917
-0.184731
-0.208086
-0.224238
-0.233939
-0.238177
-0.23796
-0.234173
-0.227542
-0.218601
-0.207734
-0.195207
-0.181214
-0.1659
-0.149391
-0.131802
-0.113248
-0.093857
-0.0737619
-0.0531089
-0.0320517
-0.0107531
0.0105435
0.0314306
0.0520802
0.0723341
0.0920382
0.11105
0.129234
0.146466
0.162627
0.177596
0.191246
0.203417
0.213907
0.222432
0.228605
0.231887
0.231585
0.226869
0.216837
0.200636
0.177649
0.147706
0.111241
0.0693533
0.0237485
-0.0237485
-0.0693533
-0.111241
-0.147706
-0.177649
-0.200636
-0.216837
-0.226869
-0.231585
-0.231887
-0.228605
-0.222432
-0.213907
-0.203417
-0.191246
-0.177596
-0.162627
-0.146466
-0.129234
-0.11105
-0.0920382
-0.0723341
-0.0520802
-0.0314306
-0.0105435
0.0102962
0.0306946
0.050862
0.0706389
0.0898753
0.108427
0.126163
0.142956
0.158685
0.173229
0.186448
0.198178
0.2082
0.216223
0.221845
0.224544
0.223656
0.218434
0.208087
0.191911
0.169425
0.140539
0.105668
0.0658046
0.0225133
-0.0225133
-0.0658046
-0.105668
-0.140539
-0.169425
-0.191911
-0.208087
-0.218434
-0.223656
-0.224544
-0.221845
-0.216223
-0.2082
-0.198178
-0.186448
-0.173229
-0.158685
-0.142956
-0.126163
-0.108427
-0.0898753
-0.0706389
-0.050862
-0.0306946
-0.0102962
0.0100116
0.0298493
0.0494589
0.0686846
0.0873745
0.105388
0.122592
0.138861
0.154074
0.168102
0.180804
0.192002
0.20147
0.208902
0.213901
0.215953
0.214451
0.20873
0.198131
0.182092
0.160261
0.132608
0.0995232
0.061898
0.0211541
-0.0211541
-0.061898
-0.0995232
-0.132608
-0.160261
-0.182092
-0.198131
-0.20873
-0.214451
-0.215953
-0.213901
-0.208902
-0.20147
-0.192002
-0.180804
-0.168102
-0.154074
-0.138861
-0.122592
-0.105388
-0.0873745
-0.0686846
-0.0494589
-0.0298493
-0.0100116
0.0096921
0.0288969
0.0478777
0.066476
0.0845429
0.101936
0.118525
0.134183
0.148789
0.162214
0.174308
0.184889
0.193717
0.200488
0.204802
0.206181
0.204071
0.197914
0.187172
0.17142
0.150407
0.124146
0.0929954
0.0577538
0.0197145
-0.0197145
-0.0577538
-0.0929954
-0.124146
-0.150407
-0.17142
-0.187172
-0.197914
-0.204071
-0.206181
-0.204802
-0.200488
-0.193717
-0.184889
-0.174308
-0.162214
-0.148789
-0.134183
-0.118525
-0.101936
-0.0845429
-0.066476
-0.0478777
-0.0288969
-0.0096921
0.00933731
0.0278414
0.0461205
0.0640181
0.0813824
0.0980743
0.113961
0.128921
0.142832
0.155564
0.166966
0.176846
0.184968
0.191018
0.194623
0.195334
0.192681
0.186199
0.175472
0.160182
0.140151
0.115412
0.0862874
0.0535051
0.0182399
-0.0182399
-0.0535051
-0.0862874
-0.115412
-0.140151
-0.160182
-0.175472
-0.186199
-0.192681
-0.195334
-0.194623
-0.191018
-0.184968
-0.176846
-0.166966
-0.155564
-0.142832
-0.128921
-0.113961
-0.0980743
-0.0813824
-0.0640181
-0.0461205
-0.0278414
-0.00933731
0.00894911
0.0266817
0.0441893
0.0613099
0.0778939
0.0937996
0.1089
0.123073
0.136201
0.148156
0.158784
0.167899
0.175257
0.180566
0.183468
0.183577
0.180496
0.173856
0.163339
0.1487
0.1298
0.106668
0.0796041
0.0492797
0.0167766
-0.0167766
-0.0492797
-0.0796041
-0.106668
-0.1298
-0.1487
-0.163339
-0.173856
-0.180496
-0.183577
-0.183468
-0.180566
-0.175257
-0.167899
-0.158784
-0.148156
-0.136201
-0.123073
-0.1089
-0.0937996
-0.0778939
-0.0613099
-0.0441893
-0.0266817
-0.00894911
0.0085251
0.0254175
0.0420788
0.0583471
0.0740684
0.0891051
0.103331
0.116632
0.128894
0.139993
0.149784
0.15808
0.164656
0.16923
0.171496
0.171118
0.167783
0.161199
0.151109
0.137304
0.119647
0.0981602
0.0731278
0.0451946
0.015363
-0.015363
-0.0451946
-0.0731278
-0.0981602
-0.119647
-0.137304
-0.151109
-0.161199
-0.167783
-0.171118
-0.171496
-0.16923
-0.164656
-0.15808
-0.149784
-0.139993
-0.128894
-0.116632
-0.103331
-0.0891051
-0.0740684
-0.0583471
-0.0420788
-0.0254175
-0.0085251
0.00806507
0.0240415
0.0397808
0.0551148
0.0698909
0.0839716
0.0972378
0.109582
0.120901
0.131081
0.139985
0.147445
0.153248
0.157155
0.1589
0.158218
0.154853
0.148564
0.139119
0.126299
0.109953
0.0900919
0.0670079
0.0413391
0.0140316
-0.0140316
-0.0413391
-0.0670079
-0.0900919
-0.109953
-0.126299
-0.139119
-0.148564
-0.154853
-0.158218
-0.1589
-0.157155
-0.153248
-0.147445
-0.139985
-0.131081
-0.120901
-0.109582
-0.0972378
-0.0839716
-0.0698909
-0.0551148
-0.0397808
-0.0240415
-0.00806507
0.00756391
0.0225441
0.0372765
0.0515912
0.0653328
0.0783696
0.0905907
0.101901
0.112211
0.121424
0.129423
0.13606
0.14116
0.14452
0.145929
0.145172
0.142035
0.136287
0.127675
0.115946
0.10092
0.082613
0.0613452
0.0377755
0.012801
-0.012801
-0.0377755
-0.0613452
-0.082613
-0.10092
-0.115946
-0.127675
-0.136287
-0.142035
-0.145172
-0.145929
-0.14452
-0.14116
-0.13606
-0.129423
-0.121424
-0.112211
-0.101901
-0.0905907
-0.0783696
-0.0653328
-0.0515912
-0.0372765
-0.0225441
-0.00756391
0.00701744
0.0209084
0.0345415
0.0477411
0.0603548
0.0722574
0.0833503
0.0935578
0.102811
0.111039
0.11815
0.124035
0.128554
0.131553
0.132863
0.132302
0.129656
0.124665
0.117025
0.106428
0.0926763
0.0758064
0.0561954
0.0345323
0.0116827
-0.0116827
-0.0345323
-0.0561954
-0.0758064
-0.0926763