# vtk DataFile Version 2.0
HPC Tutorials: Michael Bader, Kaveh Rahnema, Oliver Meister
ASCII
DATASET RECTILINEAR_GRID
DIMENSIONS 51 51 1
X_COORDINATES 51 float
0
0.02
0.04
0.06
0.08
0.1
0.12
0.14
0.16
0.18
0.2
0.22
0.24
0.26
0.28
0.3
0.32
0.34
0.36
0.38
0.4
0.42
0.44
0.46
0.48
0.5
0.52
0.54
0.56
0.58
0.6
0.62
0.64
0.66
0.68
0.7
0.72
0.74
0.76
0.78
0.8
0.82
0.84
0.86
0.88
0.9
0.92
0.94
0.96
0.98
1
Y_COORDINATES 51 float
0
0.02
0.04
0.06
0.08
0.1
0.12
0.14
0.16
0.18
0.2
0.22
0.24
0.26
0.28
0.3
0.32
0.34
0.36
0.38
0.4
0.42
0.44
0.46
0.48
0.5
0.52
0.54
0.56
0.58
0.6
0.62
0.64
0.66
0.68
0.7
0.72
0.74
0.76
0.78
0.8
0.82
0.84
0.86
0.88
0.9
0.92
0.94
0.96
0.98
1
Z_COORDINATES 1 float
0
CELL_DATA 2500
SCALARS H float 1
LOOKUP_TABLE default
0.606184
0.607142
0.609086
0.612075
0.616204
0.62161
0.628475
0.637002
0.64738
0.659694
0.673806
0.689243
0.705193
0.720662
0.73474
0.746832
0.756727
0.764534
0.770539
0.77507
0.77844
0.780889
0.782587
0.78365
0.784147
0.784147
0.78365
0.782587
0.780889
0.77844
0.77507
0.770539
0.764534
0.756727
0.746832
0.73474
0.720662
0.705193
0.689243
0.673806
0.659694
0.64738
0.637002
0.628475
0.62161
0.616204
0.612075
0.609086
0.607142
0.606184
0.607142
0.608094
0.610025
0.612997
0.617107
0.622492
0.629333
0.637829
0.648164
0.660416
0.674443
0.689777
0.705622
0.721004
0.735029
0.747104
0.757015
0.764856
0.770905
0.775481
0.77889
0.781371
0.783094
0.784173
0.784677
0.784677
0.784173
0.783094
0.781371
0.77889
0.775481
0.770905
0.764856
0.757015
0.747104
0.735029
0.721004
0.705622
0.689777
0.674443
0.660416
0.648164
0.637829
0.629333
0.622492
0.617107
0.612997
0.610025
0.608094
0.607142
0.609086
0.610025
0.611934
0.614875
0.618948
0.624295
0.63109
0.639529
0.649781
0.661912
0.675772
0.690903
0.706538
0.721742
0.735651
0.747683
0.757611
0.765511
0.771638
0.776293
0.779775
0.782315
0.784083
0.785191
0.78571
0.78571
0.785191
0.784083
0.782315
0.779775
0.776293
0.771638
0.765511
0.757611
0.747683
0.735651
0.721742
0.706538
0.690903
0.675772
0.661912
0.649781
0.639529
0.63109
0.624295
0.618948
0.614875
0.611934
0.610025
0.609086
0.612075
0.612997
0.614875
0.617774
0.6218
0.627094
0.633828
0.642186
0.652321
0.664276
0.67789
0.69272
0.708038
0.722964
0.736679
0.748618
0.758544
0.766503
0.772723
0.777477
0.781052
0.783669
0.785494
0.786641
0.787179
0.787179
0.786641
0.785494
0.783669
0.781052
0.777477
0.772723
0.766503
0.758544
0.748618
0.736679
0.722964
0.708038
0.69272
0.67789
0.664276
0.652321
0.642186
0.633828
0.627094
0.6218
0.617774
0.614875
0.612997
0.612075
0.616204
0.617107
0.618948
0.6218
0.625771
0.631003
0.637663
0.645921
0.655904
0.667629
0.680921
0.695349
0.710234
0.724766
0.738186
0.749955
0.759826
0.767816
0.774114
0.778967
0.782636
0.785334
0.787222
0.78841
0.788969
0.788969
0.78841
0.787222
0.785334
0.782636
0.778967
0.774114
0.767816
0.759826
0.749955
0.738186
0.724766
0.710234
0.695349
0.680921
0.667629
0.655904
0.645921
0.637663
0.631003
0.625771
0.6218
0.618948
0.617107
0.616204
0.62161
0.622492
0.624295
0.627094
0.631003
0.636164
0.642737
0.65087
0.660662
0.672096
0.684979
0.698895
0.713219
0.727223
0.740218
0.751704
0.761433
0.76939
0.775724
0.780647
0.784393
0.787161
0.789104
0.79033
0.790909
0.790909
0.79033
0.789104
0.787161
0.784393
0.780647
0.775724
0.76939
0.761433
0.751704
0.740218
0.727223
0.713219
0.698895
0.684979
0.672096
0.660662
0.65087
0.642737
0.636164
0.631003
0.627094
0.624295
0.622492
0.62161
0.628475
0.629333
0.63109
0.633828
0.637663
0.642737
0.649196
0.657166
0.666709
0.677772
0.69014
0.703414
0.71703
0.730347
0.742762
0.753823
0.763288
0.771117
0.777415
0.782356
0.786144
0.788957
0.79094
0.792194
0.792788
0.792788
0.792194
0.79094
0.788957
0.786144
0.782356
0.777415
0.771117
0.763288
0.753823
0.742762
0.730347
0.71703
0.703414
0.69014
0.677772
0.666709
0.657166
0.649196
0.642737
0.637663
0.633828
0.63109
0.629333
0.628475
0.637002
0.637829
0.639529
0.642186
0.645921
0.65087
0.657166
0.664905
0.674109
0.684687
0.696405
0.708882
0.721621
0.734076
0.745737
0.75621
0.765269
0.772851
0.779021
0.783912
0.787691
0.790516
0.792515
0.793783
0.794385
0.794385
0.793783
0.792515
0.790516
0.787691
0.783912
0.779021
0.772851
0.765269
0.75621
0.745737
0.734076
0.721621
0.708882
0.696405
0.684687
0.674109
0.664905
0.657166
0.65087
0.645921
0.642186
0.639529
0.637829
0.637002
0.64738
0.648164
0.649781
0.652321
0.655904
0.660662
0.666709
0.674109
0.682844
0.692785
0.703684
0.715187
0.726869
0.738281
0.749011
0.758731
0.767235
0.774443
0.780385
0.785147
0.788862
0.791658
0.793647
0.794913
0.795516
0.795516
0.794913
0.793647
0.791658
0.788862
0.785147
0.780385
0.774443
0.767235
0.758731
0.749011
0.738281
0.726869
0.715187
0.703684
0.692785
0.682844
0.674109
0.666709
0.660662
0.655904
0.652321
0.649781
0.648164
0.64738
0.659694
0.660416
0.661912
0.664276
0.667629
0.672096
0.677772
0.684687
0.692785
0.701906
0.711798
0.722143
0.732593
0.742797
0.752437
0.761254
0.769065
0.775781
0.781394
0.785951
0.789544
0.79227
0.794221
0.795469
0.796065
0.796065
0.795469
0.794221
0.79227
0.789544
0.785951
0.781394
0.775781
0.769065
0.761254
0.752437
0.742797
0.732593
0.722143
0.711798
0.701906
0.692785
0.684687
0.677772
0.672096
0.667629
0.664276
0.661912
0.660416
0.659694
0.673806
0.674443
0.675772
0.67789
0.680921
0.684979
0.69014
0.696405
0.703684
0.711798
0.720504
0.729529
0.738602
0.747468
0.755897
0.763691
0.770696
0.776816
0.782012
0.786292
0.789708
0.792327
0.794213
0.795426
0.796007
0.796007
0.795426
0.794213
0.792327
0.789708
0.786292
0.782012
0.776816
0.770696
0.763691
0.755897
0.747468
0.738602
0.729529
0.720504
0.711798
0.703684
0.696405
0.69014
0.684979
0.680921
0.67789
0.675772
0.674443
0.673806
0.689243
0.689777
0.690903
0.69272
0.695349
0.698895
0.703414
0.708882
0.715187
0.722143
0.729529
0.737123
0.744731
0.752181
0.759323
0.766015
0.772132
0.777575
0.782279
0.78622
0.78941
0.791882
0.79368
0.794842
0.795402
0.795402
0.794842
0.79368
0.791882
0.78941
0.78622
0.782279
0.777575
0.772132
0.766015
0.759323
0.752181
0.744731
0.737123
0.729529
0.722143
0.715187
0.708882
0.703414
0.698895
0.695349
0.69272
0.690903
0.689777
0.689243
0.705193
0.705622
0.706538
0.708038
0.710234
0.713219
0.71703
0.721621
0.726869
0.732593
0.738602
0.744731
0.750852
0.756871
0.762703
0.768258
0.773437
0.778144
0.782297
0.785845
0.788764
0.791057
0.79274
0.793837
0.794368
0.794368
0.793837
0.79274
0.791057
0.788764
0.785845
0.782297
0.778144
0.773437
0.768258
0.762703
0.756871
0.750852
0.744731
0.738602
0.732593
0.726869
0.721621
0.71703
0.713219
0.710234
0.708038
0.706538
0.705622
0.705193
0.720662
0.721004
0.721742
0.722964
0.724766
0.727223
0.730347
0.734076
0.738281
0.742797
0.747468
0.752181
0.756871
0.761506
0.766058
0.770481
0.774704
0.778642
0.782202
0.785311
0.78792
0.790001
0.791547
0.792563
0.793058
0.793058
0.792563
0.791547
0.790001
0.78792
0.785311
0.782202
0.778642
0.774704
0.770481
0.766058
0.761506
0.756871
0.752181
0.747468
0.742797
0.738281
0.734076
0.730347
0.727223
0.724766
0.722964
0.721742
0.721004
0.720662
0.73474
0.735029
0.735651
0.736679
0.738186
0.740218
0.742762
0.745737
0.749011
0.752437
0.755897
0.759323
0.762703
0.766058
0.769406
0.772743
0.776027
0.779185
0.782127
0.784766
0.787029
0.788869
0.790254
0.791175
0.791626
0.791626
0.791175
0.790254
0.788869
0.787029
0.784766
0.782127
0.779185
0.776027
0.772743
0.769406
0.766058
0.762703
0.759323
0.755897
0.752437
0.749011
0.745737
0.742762
0.740218
0.738186
0.736679
0.735651
0.735029
0.73474
0.746832
0.747104
0.747683
0.748618
0.749955
0.751704
0.753823
0.75621
0.758731
0.761254
0.763691
0.766015
0.768258
0.770481
0.772743
0.775076
0.777468
0.779862
0.782179
0.784326
0.78622
0.787793
0.788998
0.789808
0.790208
0.790208
0.789808
0.788998
0.787793
0.78622
0.784326
0.782179
0.779862
0.777468
0.775076
0.772743
0.770481
0.768258
0.766015
0.763691
0.761254
0.758731
0.75621
0.753823
0.751704
0.749955
0.748618
0.747683
0.747104
0.746832
0.756727
0.757015
0.757611
0.758544
0.759826
0.761433
0.763288
0.765269
0.767235
0.769065
0.770696
0.772132
0.773437
0.774704
0.776027
0.777468
0.77904
0.780714
0.782421
0.784074
0.785584
0.786873
0.787882
0.78857
0.788913
0.788913
0.78857
0.787882
0.786873
0.785584
0.784074
0.782421
0.780714
0.77904
0.777468
0.776027
0.774704
0.773437
0.772132
0.770696
0.769065
0.767235
0.765269
0.763288
0.761433
0.759826
0.758544
0.757611
0.757015
0.756727
0.764534
0.764856
0.765511
0.766503
0.767816
0.76939
0.771117
0.772851
0.774443
0.775781
0.776816
0.777575
0.778144
0.778642
0.779185
0.779862
0.780714
0.781732
0.782866
0.784041
0.78517
0.786171
0.786976
0.787535
0.787818
0.787818
0.787535
0.786976
0.786171
0.78517
0.784041
0.782866
0.781732
0.780714
0.779862
0.779185
0.778642
0.778144
0.777575
0.776816
0.775781
0.774443
0.772851
0.771117
0.76939
0.767816
0.766503
0.765511
0.764856
0.764534
0.770539
0.770905
0.771638
0.772723
0.774114
0.775724
0.777415
0.779021
0.780385
0.781394
0.782012
0.782279
0.782297
0.782202
0.782127
0.782179
0.782421
0.782866
0.783485
0.784218
0.784985
0.785706
0.786311
0.786742
0.786963
0.786963
0.786742
0.786311
0.785706
0.784985
0.784218
0.783485
0.782866
0.782421
0.782179
0.782127
0.782202
0.782297
0.782279
0.782012
0.781394
0.780385
0.779021
0.777415
0.775724
0.774114
0.772723
0.771638
0.770905
0.770539
0.77507
0.775481
0.776293
0.777477
0.778967
0.780647
0.782356
0.783912
0.785147
0.785951
0.786292
0.78622
0.785845
0.785311
0.784766
0.784326
0.784074
0.784041
0.784218
0.78456
0.785001
0.785466
0.785883
0.786194
0.786357
0.786357
0.786194
0.785883
0.785466
0.785001
0.78456
0.784218
0.784041
0.784074
0.784326
0.784766
0.785311
0.785845
0.78622
0.786292
0.785951
0.785147
0.783912
0.782356
0.780647
0.778967
0.777477
0.776293
0.775481
0.77507
0.77844
0.77889
0.779775
0.781052
0.782636
0.784393
0.786144
0.787691
0.788862
0.789544
0.789708
0.78941
0.788764
0.78792
0.787029
0.78622
0.785584
0.78517
0.784985
0.785001
0.785164
0.785407
0.785662
0.785867
0.78598
0.78598
0.785867
0.785662
0.785407
0.785164
0.785001
0.784985
0.78517
0.785584
0.78622
0.787029
0.78792
0.788764
0.78941
0.789708
0.789544
0.788862
0.787691
0.786144
0.784393
0.782636
0.781052
0.779775
0.77889
0.77844
0.780889
0.781371
0.782315
0.783669
0.785334
0.787161
0.788957
0.790516
0.791658
0.79227
0.792327
0.791882
0.791057
0.790001
0.788869
0.787793
0.786873
0.786171
0.785706
0.785466
0.785407
0.785472
0.785594
0.785714
0.785785
0.785785
0.785714
0.785594
0.785472
0.785407
0.785466
0.785706
0.786171
0.786873
0.787793
0.788869
0.790001
0.791057
0.791882
0.792327
0.79227
0.791658
0.790516
0.788957
0.787161
0.785334
0.783669
0.782315
0.781371
0.780889
0.782587
0.783094
0.784083
0.785494
0.787222
0.789104
0.79094
0.792515
0.793647
0.794221
0.794213
0.79368
0.79274
0.791547
0.790254
0.788998
0.787882
0.786976
0.786311
0.785883
0.785662
0.785594
0.785619
0.785676
0.785716
0.785716
0.785676
0.785619
0.785594
0.785662
0.785883
0.786311
0.786976
0.787882
0.788998
0.790254
0.791547
0.79274
0.79368
0.794213
0.794221
0.793647
0.792515
0.79094
0.789104
0.787222
0.785494
0.784083
0.783094
0.782587
0.78365
0.784173
0.785191
0.786641
0.78841
0.79033
0.792194
0.793783
0.794913
0.795469
0.795426
0.794842
0.793837
0.792563
0.791175
0.789808
0.78857
0.787535
0.786742
0.786194
0.785867
0.785714
0.785676
0.785691
0.785712
0.785712
0.785691
0.785676
0.785714
0.785867
0.786194
0.786742
0.787535
0.78857
0.789808
0.791175
0.792563
0.793837
0.794842
0.795426
0.795469
0.794913
0.793783
0.792194
0.79033
0.78841
0.786641
0.785191
0.784173
0.78365
0.784147
0.784677
0.78571
0.787179
0.788969
0.790909
0.792788
0.794385
0.795516
0.796065
0.796007
0.795402
0.794368
0.793058
0.791626
0.790208
0.788913
0.787818
0.786963
0.786357
0.78598
0.785785
0.785716
0.785712
0.785724
0.785724
0.785712
0.785716
0.785785
0.78598
0.786357
0.786963
0.787818
0.788913
0.790208
0.791626
0.793058
0.794368
0.795402
0.796007
0.796065
0.795516
0.794385
0.792788
0.790909
0.788969
0.787179
0.78571
0.784677
0.784147
0.784147
0.784677
0.78571
0.787179
0.788969
0.790909
0.792788
0.794385
0.795516
0.796065
0.796007
0.795402
0.794368
0.793058
0.791626
0.790208
0.788913
0.787818
0.786963
0.786357
0.78598
0.785785
0.785716
0.785712
0.785724
0.785724
0.785712
0.785716
0.785785
0.78598
0.786357
0.786963
0.787818
0.788913
0.790208
0.791626
0.793058
0.794368
0.795402
0.796007
0.796065
0.795516
0.794385
0.792788
0.790909
0.788969
0.787179
0.78571
0.784677
0.784147
0.78365
0.784173
0.785191
0.786641
0.78841
0.79033
0.792194
0.793783
0.794913
0.795469
0.795426
0.794842
0.793837
0.792563
0.791175
0.789808
0.78857
0.787535
0.786742
0.786194
0.785867
0.785714
0.785676
0.785691
0.785712
0.785712
0.785691
0.785676
0.785714
0.785867
0.786194
0.786742
0.787535
0.78857
0.789808
0.791175
0.792563
0.793837
0.794842
0.795426
0.795469
0.794913
0.793783
0.792194
0.79033
0.78841
0.786641
0.785191
0.784173
0.78365
0.782587
0.783094
0.784083
0.785494
0.787222
0.789104
0.79094
0.792515
0.793647
0.794221
0.794213
0.79368
0.79274
0.791547
0.790254
0.788998
0.787882
0.786976
0.786311
0.785883
0.785662
0.785594
0.785619
0.785676
0.785716
0.785716
0.785676
0.785619
0.785594
0.785662
0.785883
0.786311
0.786976
0.787882
0.788998
0.790254
0.791547
0.79274
0.79368
0.794213
0.794221
0.793647
0.792515
0.79094
0.789104
0.787222
0.785494
0.784083
0.783094
0.782587
0.780889
0.781371
0.782315
0.783669
0.785334
0.787161
0.788957
0.790516
0.791658
0.79227
0.792327
0.791882
0.791057
0.790001
0.788869
0.787793
0.786873
0.786171
0.785706
0.785466
0.785407
0.785472
0.785594
0.785714
0.785785
0.785785
0.785714
0.785594
0.785472
0.785407
0.785466
0.785706
0.786171
0.786873
0.787793
0.788869
0.790001
0.791057
0.791882
0.792327
0.79227
0.791658
0.790516
0.788957
0.787161
0.785334
0.783669
0.782315
0.781371
0.780889
0.77844
0.77889
0.779775
0.781052
0.782636
0.784393
0.786144
0.787691
0.788862
0.789544
0.789708
0.78941
0.788764
0.78792
0.787029
0.78622
0.785584
0.78517
0.784985
0.785001
0.785164
0.785407
0.785662
0.785867
0.78598
0.78598
0.785867
0.785662
0.785407
0.785164
0.785001
0.784985
0.78517
0.785584
0.78622
0.787029
0.78792
0.788764
0.78941
0.789708
0.789544
0.788862
0.787691
0.786144
0.784393
0.782636
0.781052
0.779775
0.77889
0.77844
0.77507
0.775481
0.776293
0.777477
0.778967
0.780647
0.782356
0.783912
0.785147
0.785951
0.786292
0.78622
0.785845
0.785311
0.784766
0.784326
0.784074
0.784041
0.784218
0.78456
0.785001
0.785466
0.785883
0.786194
0.786357
0.786357
0.786194
0.785883
0.785466
0.785001
0.78456
0.784218
0.784041
0.784074
0.784326
0.784766
0.785311
0.785845
0.78622
0.786292
0.785951
0.785147
0.783912
0.782356
0.780647
0.778967
0.777477
0.776293
0.775481
0.77507
0.770539
0.770905
0.771638
0.772723
0.774114
0.775724
0.777415
0.779021
0.780385
0.781394
0.782012
0.782279
0.782297
0.782202
0.782127
0.782179
0.782421
0.782866
0.783485
0.784218
0.784985
0.785706
0.786311
0.786742
0.786963
0.786963
0.786742
0.786311
0.785706
0.784985
0.784218
0.783485
0.782866
0.782421
0.782179
0.782127
0.782202
0.782297
0.782279
0.782012
0.781394
0.780385
0.779021
0.777415
0.775724
0.774114
0.772723
0.771638
0.770905
0.770539
0.764534
0.764856
0.765511
0.766503
0.767816
0.76939
0.771117
0.772851
0.774443
0.775781
0.776816
0.777575
0.778144
0.778642
0.779185
0.779862
0.780714
0.781732
0.782866
0.784041
0.78517
0.786171
0.786976
0.787535
0.787818
0.787818
0.787535
0.786976
0.786171
0.78517
0.784041
0.782866
0.781732
0.780714
0.779862
0.779185
0.778642
0.778144
0.777575
0.776816
0.775781
0.774443
0.772851
0.771117
0.76939
0.767816
0.766503
0.765511
0.764856
0.764534
0.756727
0.757015
0.757611
0.758544
0.759826
0.761433
0.763288
0.765269
0.767235
0.769065
0.770696
0.772132
0.773437
0.774704
0.776027
0.777468
0.77904
0.780714
0.782421
0.784074
0.785584
0.786873
0.787882
0.78857
0.788913
0.788913
0.78857
0.787882
0.786873
0.785584
0.784074
0.782421
0.780714
0.77904
0.777468
0.776027
0.774704
0.773437
0.772132
0.770696
0.769065
0.767235
0.765269
0.763288
0.761433
0.759826
0.758544
0.757611
0.757015
0.756727
0.746832
0.747104
0.747683
0.748618
0.749955
0.751704
0.753823
0.75621
0.758731
0.761254
0.763691
0.766015
0.768258
0.770481
0.772743
0.775076
0.777468
0.779862
0.782179
0.784326
0.78622
0.787793
0.788998
0.789808
0.790208
0.790208
0.789808
0.788998
0.787793
0.78622
0.784326
0.782179
0.779862
0.777468
0.775076
0.772743
0.770481
0.768258
0.766015
0.763691
0.761254
0.758731
0.75621
0.753823
0.751704
0.749955
0.748618
0.747683
0.747104
0.746832
0.73474
0.735029
0.735651
0.736679
0.738186
0.740218
0.742762
0.745737
0.749011
0.752437
0.755897
0.759323
0.762703
0.766058
0.769406
0.772743
0.776027
0.779185
0.782127
0.784766
0.787029
0.788869
0.790254
0.791175
0.791626
0.791626
0.791175
0.790254
0.788869
0.787029
0.784766
0.782127
0.779185
0.776027
0.772743
0.769406
0.766058
0.762703
0.759323
0.755897
0.752437
0.749011
0.745737
0.742762
0.740218
0.738186
0.736679
0.735651
0.735029
0.73474
0.720662
0.721004
0.721742
0.722964
0.724766
0.727223
0.730347
0.734076
0.738281
0.742797
0.747468
0.752181
0.756871
0.761506
0.766058
0.770481
0.774704
0.778642
0.782202
0.785311
0.78792
0.790001
0.791547
0.792563
0.793058
0.793058
0.792563
0.791547
0.790001
0.78792
0.785311
0.782202
0.778642
0.774704
0.770481
0.766058
0.761506
0.756871
0.752181
0.747468
0.742797
0.738281
0.734076
0.730347
0.727223
0.724766
0.722964
0.721742
0.721004
0.720662
0.705193
0.705622
0.706538
0.708038
0.710234
0.713219
0.71703
0.721621
0.726869
0.732593
0.738602
0.744731
0.750852
0.756871
0.762703
0.768258
0.773437
0.778144
0.782297
0.785845
0.788764
0.791057
0.79274
0.793837
0.794368
0.794368
0.793837
0.79274
0.791057
0.788764
0.785845
0.782297
0.778144
0.773437
0.768258
0.762703
0.756871
0.750852
0.744731
0.738602
0.732593
0.726869
0.721621
0.71703
0.713219
0.710234
0.708038
0.706538
0.705622
0.705193
0.689243
0.689777
0.690903
0.69272
0.695349
0.698895
0.703414
0.708882
0.715187
0.722143
0.729529
0.737123
0.744731
0.752181
0.759323
0.766015
0.772132
0.777575
0.782279
0.78622
0.78941
0.791882
0.79368
0.794842
0.795402
0.795402
0.794842
0.79368
0.791882
0.78941
0.78622
0.782279
0.777575
0.772132
0.766015
0.759323
0.752181
0.744731
0.737123
0.729529
0.722143
0.715187
0.708882
0.703414
0.698895
0.695349
0.69272
0.690903
0.689777
0.689243
0.673806
0.674443
0.675772
0.67789
0.680921
0.684979
0.69014
0.696405
0.703684
0.711798
0.720504
0.729529
0.738602
0.747468
0.755897
0.763691
0.770696
0.776816
0.782012
0.786292
0.789708
0.792327
0.794213
0.795426
0.796007
0.796007
0.795426
0.794213
0.792327
0.789708
0.786292
0.782012
0.776816
0.770696
0.763691
0.755897
0.747468
0.738602
0.729529
0.720504
0.711798
0.703684
0.696405
0.69014
0.684979
0.680921
0.67789
0.675772
0.674443
0.673806
0.659694
0.660416
0.661912
0.664276
0.667629
0.672096
0.677772
0.684687
0.692785
0.701906
0.711798
0.722143
0.732593
0.742797
0.752437
0.761254
0.769065
0.775781
0.781394
0.785951
0.789544
0.79227
0.794221
0.795469
0.796065
0.796065
0.795469
0.794221
0.79227
0.789544
0.785951
0.781394
0.775781
0.769065
0.761254
0.752437
0.742797
0.732593
0.722143
0.711798
0.701906
0.692785
0.684687
0.677772
0.672096
0.667629
0.664276
0.661912
0.660416
0.659694
0.64738
0.648164
0.649781
0.652321
0.655904
0.660662
0.666709
0.674109
0.682844
0.692785
0.703684
0.715187
0.726869
0.738281
0.749011
0.758731
0.767235
0.774443
0.780385
0.785147
0.788862
0.791658
0.793647
0.794913
0.795516
0.795516
0.794913
0.793647
0.791658
0.788862
0.785147
0.780385
0.774443
0.767235
0.758731
0.749011
0.738281
0.726869
0.715187
0.703684
0.692785
0.682844
0.674109
0.666709
0.660662
0.655904
0.652321
0.649781
0.648164
0.64738
0.637002
0.637829
0.639529
0.642186
0.645921
0.65087
0.657166
0.664905
0.674109
0.684687
0.696405
0.708882
0.721621
0.734076
0.745737
0.75621
0.765269
0.772851
0.779021
0.783912
0.787691
0.790516
0.792515
0.793783
0.794385
0.794385
0.793783
0.792515
0.790516
0.787691
0.783912
0.779021
0.772851
0.765269
0.75621
0.745737
0.734076
0.721621
0.708882
0.696405
0.684687
0.674109
0.664905
0.657166
0.65087
0.645921
0.642186
0.639529
0.637829
0.637002
0.628475
0.629333
0.63109
0.633828
0.637663
0.642737
0.649196
0.657166
0.666709
0.677772
0.69014
0.703414
0.71703
0.730347
0.742762
0.753823
0.763288
0.771117
0.777415
0.782356
0.786144
0.788957
0.79094
0.792194
0.792788
0.792788
0.792194
0.79094
0.788957
0.786144
0.782356
0.777415
0.771117
0.763288
0.753823
0.742762
0.730347
0.71703
0.703414
0.69014
0.677772
0.666709
0.657166
0.649196
0.642737
0.637663
0.633828
0.63109
0.629333
0.628475
0.62161
0.622492
0.624295
0.627094
0.631003
0.636164
0.642737
0.65087
0.660662
0.672096
0.684979
0.698895
0.713219
0.727223
0.740218
0.751704
0.761433
0.76939
0.775724
0.780647
0.784393
0.787161
0.789104
0.79033
0.790909
0.790909
0.79033
0.789104
0.787161
0.784393
0.780647
0.775724
0.76939
0.761433
0.751704
0.740218
0.727223
0.713219
0.698895
0.684979
0.672096
0.660662
0.65087
0.642737
0.636164
0.631003
0.627094
0.624295
0.622492
0.62161
0.616204
0.617107
0.618948
0.6218
0.625771
0.631003
0.637663
0.645921
0.655904
0.667629
0.680921
0.695349
0.710234
0.724766
0.738186
0.749955
0.759826
0.767816
0.774114
0.778967
0.782636
0.785334
0.787222
0.78841
0.788969
0.788969
0.78841
0.787222
0.785334
0.782636
0.778967
0.774114
0.767816
0.759826
0.749955
0.738186
0.724766
0.710234
0.695349
0.680921
0.667629
0.655904
0.645921
0.637663
0.631003
0.625771
0.6218
0.618948
0.617107
0.616204
0.612075
0.612997
0.614875
0.617774
0.6218
0.627094
0.633828
0.642186
0.652321
0.664276
0.67789
0.69272
0.708038
0.722964
0.736679
0.748618
0.758544
0.766503
0.772723
0.777477
0.781052
0.783669
0.785494
0.786641
0.787179
0.787179
0.786641
0.785494
0.783669
0.781052
0.777477
0.772723
0.766503
0.758544
0.748618
0.736679
0.722964
0.708038
0.69272
0.67789
0.664276
0.652321
0.642186
0.633828
0.627094
0.6218
0.617774
0.614875
0.612997
0.612075
0.609086
0.610025
0.611934
0.614875
0.618948
0.624295
0.63109
0.639529
0.649781
0.661912
0.675772
0.690903
0.706538
0.721742
0.735651
0.747683
0.757611
0.765511
0.771638
0.776293
0.779775
0.782315
0.784083
0.785191
0.78571
0.78571
0.785191
0.784083
0.782315
0.779775
0.776293
0.771638
0.765511
0.757611
0.747683
0.735651
0.721742
0.706538
0.690903
0.675772
0.661912
0.649781
0.639529
0.63109
0.624295
0.618948
0.614875
0.611934
0.610025
0.609086
0.607142
0.608094
0.610025
0.612997
0.617107
0.622492
0.629333
0.637829
0.648164
0.660416
0.674443
0.689777
0.705622
0.721004
0.735029
0.747104
0.757015
0.764856
0.770905
0.775481
0.77889
0.781371
0.783094
0.784173
0.784677
0.784677
0.784173
0.783094
0.781371
0.77889
0.775481
0.770905
0.764856
0.757015
0.747104
0.735029
0.721004
0.705622
0.689777
0.674443
0.660416
0.648164
0.637829
0.629333
0.622492
0.617107
0.612997
0.610025
0.608094
0.607142
0.606184
0.607142
0.609086
0.612075
0.616204
0.62161
0.628475
0.637002
0.64738
0.659694
0.673806
0.689243
0.705193
0.720662
0.73474
0.746832
0.756727
0.764534
0.770539
0.77507
0.77844
0.780889
0.782587
0.78365
0.784147
0.784147
0.78365
0.782587
0.780889
0.77844
0.77507
0.770539
0.764534
0.756727
0.746832
0.73474
0.720662
0.705193
0.689243
0.673806
0.659694
0.64738
0.637002
0.628475
0.62161
0.616204
0.612075
0.609086
0.607142
0.606184
SCALARS HU float 1
LOOKUP_TABLE default
-0.00135358
-0.00409192
-0.00694908
-0.0100733
-0.0137119
-0.0182401
-0.0241753
-0.0321545
-0.0428356
-0.0566938
-0.0736975
-0.0929635
-0.112638
-0.130229
-0.143324
-0.150301
-0.15063
-0.144731
-0.133568
-0.118314
-0.100054
-0.0796738
-0.057847
-0.0350862
-0.0117937
0.0117937
0.0350862
0.057847
0.0796738
0.100054
0.118314
0.133568
0.144731
0.15063
0.150301
0.143324
0.130229
0.112638
0.0929635
0.0736975
0.0566938
0.0428356
0.0321545
0.0241753
0.0182401
0.0137119
0.0100733
0.00694908
0.00409192
0.00135358
-0.001379
-0.00416969
-0.00708334
-0.0102701
-0.0139775
-0.0185791
-0.0245861
-0.0326216
-0.0433246
-0.0571468
-0.0740406
-0.0931283
-0.112589
-0.129983
-0.142945
-0.14987
-0.150219
-0.144387
-0.13331
-0.118139
-0.0999469
-0.0796153
-0.0578196
-0.0350759
-0.0117912
0.0117912
0.0350759
0.0578196
0.0796153
0.0999469
0.118139
0.13331
0.144387
0.150219
0.14987
0.142945
0.129983
0.112589
0.0931283
0.0740406
0.0571468
0.0433246
0.0326216
0.0245861
0.0185791
0.0139775
0.0102701
0.00708334
0.00416969
0.001379
-0.00143135
-0.00432949
-0.00735888
-0.0106737
-0.0145225
-0.0192748
-0.0254289
-0.0335816
-0.0443331
-0.0580911
-0.0747742
-0.0935141
-0.112553
-0.129553
-0.142239
-0.149046
-0.149421
-0.143708
-0.132792
-0.117779
-0.0997197
-0.0794859
-0.0577545
-0.0350484
-0.0117839
0.0117839
0.0350484
0.0577545
0.0794859
0.0997197
0.117779
0.132792
0.143708
0.149421
0.149046
0.142239
0.129553
0.112553
0.0935141
0.0747742
0.0580911
0.0443331
0.0335816
0.0254289
0.0192748
0.0145225
0.0106737
0.00735888
0.00432949
0.00143135
-0.0015132
-0.00457919
-0.00778919
-0.0113036
-0.0153729
-0.0203602
-0.0267431
-0.0350812
-0.0459178
-0.0595931
-0.0759804
-0.0942175
-0.112637
-0.129045
-0.141298
-0.147896
-0.14827
-0.142704
-0.132002
-0.117213
-0.0993449
-0.0792588
-0.0576297
-0.0349894
-0.0117666
0.0117666
0.0349894
0.0576297
0.0792588
0.0993449
0.117213
0.132002
0.142704
0.14827
0.147896
0.141298
0.129045
0.112637
0.0942175
0.0759804
0.0595931
0.0459178
0.0350812
0.0267431
0.0203602
0.0153729
0.0113036
0.00778919
0.00457919
0.0015132
-0.00162788
-0.0049288
-0.00839145
-0.0121851
-0.0165624
-0.0218762
-0.0285786
-0.0371785
-0.0481439
-0.0617311
-0.077749
-0.0953457
-0.11296
-0.128575
-0.14022
-0.146487
-0.146801
-0.141373
-0.130917
-0.116398
-0.0987772
-0.0788903
-0.0574103
-0.0348762
-0.0117317
0.0117317
0.0348762
0.0574103
0.0788903
0.0987772
0.116398
0.130917
0.141373
0.146801
0.146487
0.14022
0.128575
0.11296
0.0953457
0.077749
0.0617311
0.0481439
0.0371785
0.0285786
0.0218762
0.0165624
0.0121851
0.00839145
0.0049288
0.00162788
-0.00177827
-0.00538766
-0.00918197
-0.0133418
-0.0181208
-0.0238609
-0.030979
-0.0399206
-0.0510636
-0.06456
-0.0801458
-0.096974
-0.113606
-0.128229
-0.139077
-0.144862
-0.145021
-0.139692
-0.129486
-0.115274
-0.0979507
-0.0783219
-0.0570493
-0.0346793
-0.0116689
0.0116689
0.0346793
0.0570493
0.0783219
0.0979507
0.115274
0.129486
0.139692
0.145021
0.144862
0.139077
0.128229
0.113606
0.096974
0.0801458
0.06456
0.0510636
0.0399206
0.030979
0.0238609
0.0181208
0.0133418
0.00918197
0.00538766
0.00177827
-0.00196601
-0.00596024
-0.0101684
-0.0147831
-0.0200614
-0.0263281
-0.0339569
-0.0433174
-0.0546782
-0.0680763
-0.0831625
-0.0991008
-0.114583
-0.12802
-0.137876
-0.143013
-0.1429
-0.137606
-0.127639
-0.113759
-0.0967872
-0.0774825
-0.0564928
-0.0343639
-0.0115663
0.0115663
0.0343639
0.0564928
0.0774825
0.0967872
0.113759
0.127639
0.137606
0.1429
0.143013
0.137876
0.12802
0.114583
0.0991008
0.0831625
0.0680763
0.0546782
0.0433174
0.0339569
0.0263281
0.0200614
0.0147831
0.0101684
0.00596024
0.00196601
-0.00218809
-0.00663745
-0.0113342
-0.0164874
-0.0223547
-0.0292392
-0.0374612
-0.0472988
-0.0588997
-0.07217
-0.0866791
-0.101604
-0.11578
-0.127855
-0.136541
-0.140872
-0.140364
-0.135037
-0.125288
-0.111767
-0.0952033
-0.0763023
-0.0556856
-0.0338962
-0.0114123
0.0114123
0.0338962
0.0556856
0.0763023
0.0952033
0.111767
0.125288
0.135037
0.140364
0.140872
0.136541
0.127855
0.11578
0.101604
0.0866791
0.07217
0.0588997
0.0472988
0.0374612
0.0292392
0.0223547
0.0164874
0.0113342
0.00663745
0.00218809
-0.0024322
-0.00738381
-0.0126238
-0.018377
-0.0249006
-0.0324693
-0.0413381
-0.05168
-0.0635069
-0.0765951
-0.0904335
-0.104229
-0.116967
-0.12754
-0.134917
-0.138315
-0.137315
-0.131894
-0.122352
-0.109218
-0.093128
-0.0747203
-0.0545827
-0.0332472
-0.0111972
0.0111972
0.0332472
0.0545827
0.0747203
0.093128
0.109218
0.122352
0.131894
0.137315
0.138315
0.134917
0.12754
0.116967
0.104229
0.0904335
0.0765951
0.0635069
0.05168
0.0413381
0.0324693
0.0249006
0.018377
0.0126238
0.00738381
0.0024322
-0.00267653
-0.00813191
-0.0139239
-0.0202969
-0.0275029
-0.0357799
-0.0453055
-0.056134
-0.0681365
-0.0809605
-0.0940326
-0.106602
-0.117817
-0.126812
-0.132808
-0.1352
-0.133648
-0.128101
-0.118764
-0.106057
-0.090513
-0.0726956
-0.0531528
-0.032398
-0.0109141
0.0109141
0.032398
0.0531528
0.0726956
0.090513
0.106057
0.118764
0.128101
0.133648
0.1352
0.132808
0.126812
0.117817
0.106602
0.0940326
0.0809605
0.0681365
0.056134
0.0453055
0.0357799
0.0275029
0.0202969
0.0139239
0.00813191
0.00267653
-0.00288417
-0.0087768
-0.0150649
-0.0220139
-0.0298685
-0.0388211
-0.0489595
-0.0602119
-0.0723073
-0.0847768
-0.0970038
-0.108299
-0.117975
-0.125397
-0.130014
-0.131397
-0.129282
-0.123604
-0.114491
-0.102258
-0.0873349
-0.0702098
-0.0513807
-0.0313385
-0.0105602
0.0105602
0.0313385
0.0513807
0.0702098
0.0873349
0.102258
0.114491
0.123604
0.129282
0.131397
0.130014
0.125397
0.117975
0.108299
0.0970038
0.0847768
0.0723073
0.0602119
0.0489595
0.0388211
0.0298685
0.0220139
0.0150649
0.0087768
0.00288417
-0.00301613
-0.00919721
-0.0158475
-0.0232544
-0.0316546
-0.041187
-0.0518421
-0.0634176
-0.0755073
-0.0875446
-0.0988892
-0.108927
-0.117129
-0.123063
-0.126382
-0.126813
-0.12417
-0.118386
-0.10953
-0.0978209
-0.0835952
-0.0672604
-0.0492639
-0.0300669
-0.0101337
0.0101337
0.0300669
0.0492639
0.0672604
0.0835952
0.0978209
0.10953
0.118386
0.12417
0.126813
0.126382
0.123063
0.117129
0.108927
0.0988892
0.0875446
0.0755073
0.0634176
0.0518421
0.041187
0.0316546
0.0232544
0.0158475
0.00919721
0.00301613
-0.00303853
-0.00929633
-0.0161069
-0.0237893
-0.0325682
-0.0425281
-0.053559
-0.0653313
-0.0773168
-0.0888695
-0.0993474
-0.108211
-0.115069
-0.119667
-0.121826
-0.121409
-0.118307
-0.112462
-0.103901
-0.0927656
-0.0793071
-0.0638575
-0.0468076
-0.0285844
-0.00963668
0.00963668
0.0285844
0.0468076
0.0638575
0.0793071
0.0927656
0.103901
0.112462
0.118307
0.121409
0.121826
0.119667
0.115069
0.108211
0.0993474
0.0888695
0.0773168
0.0653313
0.053559
0.0425281
0.0325682
0.0237893
0.0161069
0.00929633
0.00303853
-0.00294207
-0.00904132
-0.0157864
-0.023525
-0.0324778
-0.0426729
-0.0539068
-0.065733
-0.0775201
-0.0885653
-0.0982302
-0.106044
-0.111733
-0.11518
-0.116346
-0.115207
-0.111729
-0.105872
-0.0976442
-0.0871293
-0.0745002
-0.0600194
-0.0440226
-0.026898
-0.00906871
0.00906871
0.026898
0.0440226
0.0600194
0.0745002
0.0871293
0.0976442
0.105872
0.111729
0.115207
0.116346