# vtk DataFile Version 2.0
HPC Tutorials: Michael Bader, Kaveh Rahnema, Oliver Meister
ASCII
DATASET RECTILINEAR_GRID
DIMENSIONS 51 51 1
X_COORDINATES 51 float
0
0.02
0.04
0.06
0.08
0.1
0.12
0.14
0.16
0.18
0.2
0.22
0.24
0.26
0.28
0.3
0.32
0.34
0.36
0.38
0.4
0.42
0.44
0.46
0.48
0.5
0.52
0.54
0.56
0.58
0.6
0.62
0.64
0.66
0.68
0.7
0.72
0.74
0.76
0.78
0.8
0.82
0.84
0.86
0.88
0.9
0.92
0.94
0.96
0.98
1
Y_COORDINATES 51 float
0
0.02
0.04
0.06
0.08
0.1
0.12
0.14
0.16
0.18
0.2
0.22
0.24
0.26
0.28
0.3
0.32
0.34
0.36
0.38
0.4
0.42
0.44
0.46
0.48
0.5
0.52
0.54
0.56
0.58
0.6
0.62
0.64
0.66
0.68
0.7
0.72
0.74
0.76
0.78
0.8
0.82
0.84
0.86
0.88
0.9
0.92
0.94
0.96
0.98
1
Z_COORDINATES 1 float
0
CELL_DATA 2500
SCALARS H float 1
LOOKUP_TABLE default
0.927797
0.921975
0.91136
0.897382
0.881609
0.865372
0.849585
0.834704
0.820873
0.808065
0.796194
0.785172
0.774939
0.765463
0.756741
0.748782
0.7416
0.735209
0.729621
0.724838
0.72086
0.717682
0.715297
0.713701
0.712888
0.712888
0.713701
0.715297
0.717682
0.72086
0.724838
0.729621
0.735209
0.7416
0.748782
0.756741
0.765463
0.774939
0.785172
0.796194
0.808065
0.820873
0.834704
0.849585
0.865372
0.881609
0.897382
0.91136
0.921975
0.927797
0.921975
0.916348
0.906093
0.892591
0.877351
0.861648
0.846366
0.831947
0.818535
0.806108
0.794582
0.783871
0.773914
0.76468
0.756164
0.748375
0.74133
0.735046
0.729538
0.724814
0.720877
0.717728
0.715362
0.713777
0.712969
0.712969
0.713777
0.715362
0.717728
0.720877
0.724814
0.729538
0.735046
0.74133
0.748375
0.756164
0.76468
0.773914
0.783871
0.794582
0.806108
0.818535
0.831947
0.846366
0.861648
0.877351
0.892591
0.906093
0.916348
0.921975
0.91136
0.906093
0.896501
0.883867
0.86959
0.854852
0.840478
0.826889
0.81423
0.802486
0.79158
0.781431
0.771977
0.763186
0.755049
0.747578
0.740791
0.734711
0.729358
0.724751
0.720898
0.717807
0.71548
0.713919
0.713123
0.713123
0.713919
0.71548
0.717807
0.720898
0.724751
0.729358
0.734711
0.740791
0.747578
0.755049
0.763186
0.771977
0.781431
0.79158
0.802486
0.81423
0.826889
0.840478
0.854852
0.86959
0.883867
0.896501
0.906093
0.91136
0.897382
0.892591
0.883867
0.872362
0.859333
0.845841
0.832636
0.820116
0.808426
0.797562
0.78746
0.778043
0.76925
0.761047
0.753423
0.746388
0.739962
0.734173
0.729048
0.724614
0.72089
0.717891
0.715628
0.714106
0.71333
0.71333
0.714106
0.715628
0.717891
0.72089
0.724614
0.729048
0.734173
0.739962
0.746388
0.753423
0.761047
0.76925
0.778043
0.78746
0.797562
0.808426
0.820116
0.832636
0.845841
0.859333
0.872362
0.883867
0.892591
0.897382
0.881609
0.877351
0.86959
0.859333
0.847674
0.83555
0.823626
0.812277
0.801649
0.791755
0.782542
0.773942
0.765896
0.758367
0.751341
0.744824
0.738838
0.733412
0.728581
0.724376
0.720826
0.717956
0.715782
0.714317
0.71357
0.71357
0.714317
0.715782
0.717956
0.720826
0.724376
0.728581
0.733412
0.738838
0.744824
0.751341
0.758367
0.765896
0.773942
0.782542
0.791755
0.801649
0.812277
0.823626
0.83555
0.847674
0.859333
0.86959
0.877351
0.881609
0.865372
0.861648
0.854852
0.845841
0.83555
0.824787
0.81414
0.803957
0.794388
0.785463
0.777145
0.769375
0.762099
0.755276
0.748889
0.742939
0.737445
0.732437
0.727951
0.724025
0.720693
0.717987
0.71593
0.714541
0.713832
0.713832
0.714541
0.71593
0.717987
0.720693
0.724025
0.727951
0.732437
0.737445
0.742939
0.748889
0.755276
0.762099
0.769375
0.777145
0.785463
0.794388
0.803957
0.81414
0.824787
0.83555
0.845841
0.854852
0.861648
0.865372
0.849585
0.846366
0.840478
0.832636
0.823626
0.81414
0.80469
0.795602
0.787032
0.779022
0.771555
0.764581
0.758052
0.751927
0.746184
0.740819
0.735845
0.731289
0.727187
0.723577
0.720499
0.717989
0.716074
0.714778
0.714116
0.714116
0.714778
0.716074
0.717989
0.720499
0.723577
0.727187
0.731289
0.735845
0.740819
0.746184
0.751927
0.758052
0.764581
0.771555
0.779022
0.787032
0.795602
0.80469
0.81414
0.823626
0.832636
0.840478
0.846366
0.849585
0.834704
0.831947
0.826889
0.820116
0.812277
0.803957
0.795602
0.787515
0.779856
0.772684
0.765998
0.759764
0.753937
0.748478
0.74336
0.738574
0.734125
0.730036
0.726339
0.723071
0.720272
0.71798
0.716227
0.715037
0.714429
0.714429
0.715037
0.716227
0.71798
0.720272
0.723071
0.726339
0.730036
0.734125
0.738574
0.74336
0.748478
0.753937
0.759764
0.765998
0.772684
0.779856
0.787515
0.795602
0.803957
0.812277
0.820116
0.826889
0.831947
0.834704
0.820873
0.818535
0.81423
0.808426
0.801649
0.794388
0.787032
0.779856
0.773026
0.766616
0.760643
0.755085
0.749907
0.74507
0.740545
0.736316
0.732382
0.728758
0.725471
0.722555
0.720048
0.717987
0.716406
0.71533
0.71478
0.71478
0.71533
0.716406
0.717987
0.720048
0.722555
0.725471
0.728758
0.732382
0.736316
0.740545
0.74507
0.749907
0.755085
0.760643
0.766616
0.773026
0.779856
0.787032
0.794388
0.801649
0.808426
0.81423
0.818535
0.820873
0.808065
0.806108
0.802486
0.797562
0.791755
0.785463
0.779022
0.772684
0.766616
0.760907
0.755588
0.750652
0.746073
0.741814
0.737844
0.734142
0.730701
0.727529
0.724644
0.722076
0.71986
0.718031
0.716624
0.715665
0.715174
0.715174
0.715665
0.716624
0.718031
0.71986
0.722076
0.724644
0.727529
0.730701
0.734142
0.737844
0.741814
0.746073
0.750652
0.755588
0.760907
0.766616
0.772684
0.779022
0.785463
0.791755
0.797562
0.802486
0.806108
0.808065
0.796194
0.794582
0.79158
0.78746
0.782542
0.777145
0.771555
0.765998
0.760643
0.755588
0.750879
0.746524
0.742502
0.738781
0.73533
0.732122
0.729145
0.726399
0.723897
0.721662
0.719726
0.718122
0.716883
0.716037
0.715602
0.715602
0.716037
0.716883
0.718122
0.719726
0.721662
0.723897
0.726399
0.729145
0.732122
0.73533
0.738781
0.742502
0.746524
0.750879
0.755588
0.760643
0.765998
0.771555
0.777145
0.782542
0.78746
0.79158
0.794582
0.796194
0.785172
0.783871
0.781431
0.778043
0.773942
0.769375
0.764581
0.759764
0.755085
0.750652
0.746524
0.742717
0.739219
0.736003
0.733036
0.730289
0.727744
0.725395
0.723248
0.721323
0.719648
0.718253
0.717171
0.716429
0.716047
0.716047
0.716429
0.717171
0.718253
0.719648
0.721323
0.723248
0.725395
0.727744
0.730289
0.733036
0.736003
0.739219
0.742717
0.746524
0.750652
0.755085
0.759764
0.764581
0.769375
0.773942
0.778043
0.781431
0.783871
0.785172
0.774939
0.773914
0.771977
0.76925
0.765896
0.762099
0.758052
0.753937
0.749907
0.746073
0.742502
0.739219
0.73622
0.733479
0.730965
0.728647
0.726499
0.724514
0.722691
0.721048
0.719608
0.718402
0.717461
0.716812
0.716478
0.716478
0.716812
0.717461
0.718402
0.719608
0.721048
0.722691
0.724514
0.726499
0.728647
0.730965
0.733479
0.73622
0.739219
0.742502
0.746073
0.749907
0.753937
0.758052
0.762099
0.765896
0.76925
0.771977
0.773914
0.774939
0.765463
0.76468
0.763186
0.761047
0.758367
0.755276
0.751927
0.748478
0.74507
0.741814
0.738781
0.736003
0.733479
0.731188
0.729097
0.727173
0.72539
0.723733
0.722202
0.72081
0.719578
0.718538
0.71772
0.717154
0.71686
0.71686
0.717154
0.71772
0.718538
0.719578
0.72081
0.722202
0.723733
0.72539
0.727173
0.729097
0.731188
0.733479
0.736003
0.738781
0.741814
0.74507
0.748478
0.751927
0.755276
0.758367
0.761047
0.763186
0.76468
0.765463
0.756741
0.756164
0.755049
0.753423
0.751341
0.748889
0.746184
0.74336
0.740545
0.737844
0.73533
0.733036
0.730965
0.729097
0.727399
0.725837
0.724383
0.723021
0.721748
0.720575
0.719525
0.718627
0.717915
0.717419
0.717161
0.717161
0.717419
0.717915
0.718627
0.719525
0.720575
0.721748
0.723021
0.724383
0.725837
0.727399
0.729097
0.730965
0.733036
0.73533
0.737844
0.740545
0.74336
0.746184
0.748889
0.751341
0.753423
0.755049
0.756164
0.756741
0.748782
0.748375
0.747578
0.746388
0.744824
0.742939
0.740819
0.738574
0.736316
0.734142
0.732122
0.730289
0.728647
0.727173
0.725837
0.724604
0.723445
0.722343
0.721294
0.720311
0.719416
0.718641
0.718019
0.717582
0.717353
0.717353
0.717582
0.718019
0.718641
0.719416
0.720311
0.721294
0.722343
0.723445
0.724604
0.725837
0.727173
0.728647
0.730289
0.732122
0.734142
0.736316
0.738574
0.740819
0.742939
0.744824
0.746388
0.747578
0.748375
0.748782
0.7416
0.74133
0.740791
0.739962
0.738838
0.737445
0.735845
0.734125
0.732382
0.730701
0.729145
0.727744
0.726499
0.72539
0.724383
0.723445
0.722547
0.721671
0.720817
0.719996
0.719233
0.71856
0.718013
0.717625
0.717421
0.717421
0.717625
0.718013
0.71856
0.719233
0.719996
0.720817
0.721671
0.722547
0.723445
0.724383
0.72539
0.726499
0.727744
0.729145
0.730701
0.732382
0.734125
0.735845
0.737445
0.738838
0.739962
0.740791
0.74133
0.7416
0.735209
0.735046
0.734711
0.734173
0.733412
0.732437
0.731289
0.730036
0.728758
0.727529
0.726399
0.725395
0.724514
0.723733
0.723021
0.722343
0.721671
0.720991
0.720302
0.719618
0.718965
0.718378
0.717894
0.717547
0.717363
0.717363
0.717547
0.717894
0.718378
0.718965
0.719618
0.720302
0.720991
0.721671
0.722343
0.723021
0.723733
0.724514
0.725395
0.726399
0.727529
0.728758
0.730036
0.731289
0.732437
0.733412
0.734173
0.734711
0.735046
0.735209
0.729621
0.729538
0.729358
0.729048
0.728581
0.727951
0.727187
0.726339
0.725471
0.724644
0.723897
0.723248
0.722691
0.722202
0.721748
0.721294
0.720817
0.720302
0.719751
0.719181
0.71862
0.718104
0.717671
0.717358
0.717191
0.717191
0.717358
0.717671
0.718104
0.71862
0.719181
0.719751
0.720302
0.720817
0.721294
0.721748
0.722202
0.722691
0.723248
0.723897
0.724644
0.725471
0.726339
0.727187
0.727951
0.728581
0.729048
0.729358
0.729538
0.729621
0.724838
0.724814
0.724751
0.724614
0.724376
0.724025
0.723577
0.723071
0.722555
0.722076
0.721662
0.721323
0.721048
0.72081
0.720575
0.720311
0.719996
0.719618
0.719181
0.718705
0.718218
0.71776
0.71737
0.717084
0.716931
0.716931
0.717084
0.71737
0.71776
0.718218
0.718705
0.719181
0.719618
0.719996
0.720311
0.720575
0.72081
0.721048
0.721323
0.721662
0.722076
0.722555
0.723071
0.723577
0.724025
0.724376
0.724614
0.724751
0.724814
0.724838
0.72086
0.720877
0.720898
0.72089
0.720826
0.720693
0.720499
0.720272
0.720048
0.71986
0.719726
0.719648
0.719608
0.719578
0.719525
0.719416
0.719233
0.718965
0.71862
0.718218
0.717792
0.71738
0.717024
0.71676
0.716618
0.716618
0.71676
0.717024
0.71738
0.717792
0.718218
0.71862
0.718965
0.719233
0.719416
0.719525
0.719578
0.719608
0.719648
0.719726
0.71986
0.720048
0.720272
0.720499
0.720693
0.720826
0.72089
0.720898
0.720877
0.72086
0.717682
0.717728
0.717807
0.717891
0.717956
0.717987
0.717989
0.71798
0.717987
0.718031
0.718122
0.718253
0.718402
0.718538
0.718627
0.718641
0.71856
0.718378
0.718104
0.71776
0.71738
0.717004
0.716674
0.716428
0.716295
0.716295
0.716428
0.716674
0.717004
0.71738
0.71776
0.718104
0.718378
0.71856
0.718641
0.718627
0.718538
0.718402
0.718253
0.718122
0.718031
0.717987
0.71798
0.717989
0.717987
0.717956
0.717891
0.717807
0.717728
0.717682
0.715297
0.715362
0.71548
0.715628
0.715782
0.71593
0.716074
0.716227
0.716406
0.716624
0.716883
0.717171
0.717461
0.71772
0.717915
0.718019
0.718013
0.717894
0.717671
0.71737
0.717024
0.716674
0.716364
0.716131
0.716004
0.716004
0.716131
0.716364
0.716674
0.717024
0.71737
0.717671
0.717894
0.718013
0.718019
0.717915
0.71772
0.717461
0.717171
0.716883
0.716624
0.716406
0.716227
0.716074
0.71593
0.715782
0.715628
0.71548
0.715362
0.715297
0.713701
0.713777
0.713919
0.714106
0.714317
0.714541
0.714778
0.715037
0.71533
0.715665
0.716037
0.716429
0.716812
0.717154
0.717419
0.717582
0.717625
0.717547
0.717358
0.717084
0.71676
0.716428
0.716131
0.715907
0.715784
0.715784
0.715907
0.716131
0.716428
0.71676
0.717084
0.717358
0.717547
0.717625
0.717582
0.717419
0.717154
0.716812
0.716429
0.716037
0.715665
0.71533
0.715037
0.714778
0.714541
0.714317
0.714106
0.713919
0.713777
0.713701
0.712888
0.712969
0.713123
0.71333
0.71357
0.713832
0.714116
0.714429
0.71478
0.715174
0.715602
0.716047
0.716478
0.71686
0.717161
0.717353
0.717421
0.717363
0.717191
0.716931
0.716618
0.716295
0.716004
0.715784
0.715664
0.715664
0.715784
0.716004
0.716295
0.716618
0.716931
0.717191
0.717363
0.717421
0.717353
0.717161
0.71686
0.716478
0.716047
0.715602
0.715174
0.71478
0.714429
0.714116
0.713832
0.71357
0.71333
0.713123
0.712969
0.712888
0.712888
0.712969
0.713123
0.71333
0.71357
0.713832
0.714116
0.714429
0.71478
0.715174
0.715602
0.716047
0.716478
0.71686
0.717161
0.717353
0.717421
0.717363
0.717191
0.716931
0.716618
0.716295
0.716004
0.715784
0.715664
0.715664
0.715784
0.716004
0.716295
0.716618
0.716931
0.717191
0.717363
0.717421
0.717353
0.717161
0.71686
0.716478
0.716047
0.715602
0.715174
0.71478
0.714429
0.714116
0.713832
0.71357
0.71333
0.713123
0.712969
0.712888
0.713701
0.713777
0.713919
0.714106
0.714317
0.714541
0.714778
0.715037
0.71533
0.715665
0.716037
0.716429
0.716812
0.717154
0.717419
0.717582
0.717625
0.717547
0.717358
0.717084
0.71676
0.716428
0.716131
0.715907
0.715784
0.715784
0.715907
0.716131
0.716428
0.71676
0.717084
0.717358
0.717547
0.717625
0.717582
0.717419
0.717154
0.716812
0.716429
0.716037
0.715665
0.71533
0.715037
0.714778
0.714541
0.714317
0.714106
0.713919
0.713777
0.713701
0.715297
0.715362
0.71548
0.715628
0.715782
0.71593
0.716074
0.716227
0.716406
0.716624
0.716883
0.717171
0.717461
0.71772
0.717915
0.718019
0.718013
0.717894
0.717671
0.71737
0.717024
0.716674
0.716364
0.716131
0.716004
0.716004
0.716131
0.716364
0.716674
0.717024
0.71737
0.717671
0.717894
0.718013
0.718019
0.717915
0.71772
0.717461
0.717171
0.716883
0.716624
0.716406
0.716227
0.716074
0.71593
0.715782
0.715628
0.71548
0.715362
0.715297
0.717682
0.717728
0.717807
0.717891
0.717956
0.717987
0.717989
0.71798
0.717987
0.718031
0.718122
0.718253
0.718402
0.718538
0.718627
0.718641
0.71856
0.718378
0.718104
0.71776
0.71738
0.717004
0.716674
0.716428
0.716295
0.716295
0.716428
0.716674
0.717004
0.71738
0.71776
0.718104
0.718378
0.71856
0.718641
0.718627
0.718538
0.718402
0.718253
0.718122
0.718031
0.717987
0.71798
0.717989
0.717987
0.717956
0.717891
0.717807
0.717728
0.717682
0.72086
0.720877
0.720898
0.72089
0.720826
0.720693
0.720499
0.720272
0.720048
0.71986
0.719726
0.719648
0.719608
0.719578
0.719525
0.719416
0.719233
0.718965
0.71862
0.718218
0.717792
0.71738
0.717024
0.71676
0.716618
0.716618
0.71676
0.717024
0.71738
0.717792
0.718218
0.71862
0.718965
0.719233
0.719416
0.719525
0.719578
0.719608
0.719648
0.719726
0.71986
0.720048
0.720272
0.720499
0.720693
0.720826
0.72089
0.720898
0.720877
0.72086
0.724838
0.724814
0.724751
0.724614
0.724376
0.724025
0.723577
0.723071
0.722555
0.722076
0.721662
0.721323
0.721048
0.72081
0.720575
0.720311
0.719996
0.719618
0.719181
0.718705
0.718218
0.71776
0.71737
0.717084
0.716931
0.716931
0.717084
0.71737
0.71776
0.718218
0.718705
0.719181
0.719618
0.719996
0.720311
0.720575
0.72081
0.721048
0.721323
0.721662
0.722076
0.722555
0.723071
0.723577
0.724025
0.724376
0.724614
0.724751
0.724814
0.724838
0.729621
0.729538
0.729358
0.729048
0.728581
0.727951
0.727187
0.726339
0.725471
0.724644
0.723897
0.723248
0.722691
0.722202
0.721748
0.721294
0.720817
0.720302
0.719751
0.719181
0.71862
0.718104
0.717671
0.717358
0.717191
0.717191
0.717358
0.717671
0.718104
0.71862
0.719181
0.719751
0.720302
0.720817
0.721294
0.721748
0.722202
0.722691
0.723248
0.723897
0.724644
0.725471
0.726339
0.727187
0.727951
0.728581
0.729048
0.729358
0.729538
0.729621
0.735209
0.735046
0.734711
0.734173
0.733412
0.732437
0.731289
0.730036
0.728758
0.727529
0.726399
0.725395
0.724514
0.723733
0.723021
0.722343
0.721671
0.720991
0.720302
0.719618
0.718965
0.718378
0.717894
0.717547
0.717363
0.717363
0.717547
0.717894
0.718378
0.718965
0.719618
0.720302
0.720991
0.721671
0.722343
0.723021
0.723733
0.724514
0.725395
0.726399
0.727529
0.728758
0.730036
0.731289
0.732437
0.733412
0.734173
0.734711
0.735046
0.735209
0.7416
0.74133
0.740791
0.739962
0.738838
0.737445
0.735845
0.734125
0.732382
0.730701
0.729145
0.727744
0.726499
0.72539
0.724383
0.723445
0.722547
0.721671
0.720817
0.719996
0.719233
0.71856
0.718013
0.717625
0.717421
0.717421
0.717625
0.718013
0.71856
0.719233
0.719996
0.720817
0.721671
0.722547
0.723445
0.724383
0.72539
0.726499
0.727744
0.729145
0.730701
0.732382
0.734125
0.735845
0.737445
0.738838
0.739962
0.740791
0.74133
0.7416
0.748782
0.748375
0.747578
0.746388
0.744824
0.742939
0.740819
0.738574
0.736316
0.734142
0.732122
0.730289
0.728647
0.727173
0.725837
0.724604
0.723445
0.722343
0.721294
0.720311
0.719416
0.718641
0.718019
0.717582
0.717353
0.717353
0.717582
0.718019
0.718641
0.719416
0.720311
0.721294
0.722343
0.723445
0.724604
0.725837
0.727173
0.728647
0.730289
0.732122
0.734142
0.736316
0.738574
0.740819
0.742939
0.744824
0.746388
0.747578
0.748375
0.748782
0.756741
0.756164
0.755049
0.753423
0.751341
0.748889
0.746184
0.74336
0.740545
0.737844
0.73533
0.733036
0.730965
0.729097
0.727399
0.725837
0.724383
0.723021
0.721748
0.720575
0.719525
0.718627
0.717915
0.717419
0.717161
0.717161
0.717419
0.717915
0.718627
0.719525
0.720575
0.721748
0.723021
0.724383
0.725837
0.727399
0.729097
0.730965
0.733036
0.73533
0.737844
0.740545
0.74336
0.746184
0.748889
0.751341
0.753423
0.755049
0.756164
0.756741
0.765463
0.76468
0.763186
0.761047
0.758367
0.755276
0.751927
0.748478
0.74507
0.741814
0.738781
0.736003
0.733479
0.731188
0.729097
0.727173
0.72539
0.723733
0.722202
0.72081
0.719578
0.718538
0.71772
0.717154
0.71686
0.71686
0.717154
0.71772
0.718538
0.719578
0.72081
0.722202
0.723733
0.72539
0.727173
0.729097
0.731188
0.733479
0.736003
0.738781
0.741814
0.74507
0.748478
0.751927
0.755276
0.758367
0.761047
0.763186
0.76468
0.765463
0.774939
0.773914
0.771977
0.76925
0.765896
0.762099
0.758052
0.753937
0.749907
0.746073
0.742502
0.739219
0.73622
0.733479
0.730965
0.728647
0.726499
0.724514
0.722691
0.721048
0.719608
0.718402
0.717461
0.716812
0.716478
0.716478
0.716812
0.717461
0.718402
0.719608
0.721048
0.722691
0.724514
0.726499
0.728647
0.730965
0.733479
0.73622
0.739219
0.742502
0.746073
0.749907
0.753937
0.758052
0.762099
0.765896
0.76925
0.771977
0.773914
0.774939
0.785172
0.783871
0.781431
0.778043
0.773942
0.769375
0.764581
0.759764
0.755085
0.750652
0.746524
0.742717
0.739219
0.736003
0.733036
0.730289
0.727744
0.725395
0.723248
0.721323
0.719648
0.718253
0.717171
0.716429
0.716047
0.716047
0.716429
0.717171
0.718253
0.719648
0.721323
0.723248
0.725395
0.727744
0.730289
0.733036
0.736003
0.739219
0.742717
0.746524
0.750652
0.755085
0.759764
0.764581
0.769375
0.773942
0.778043
0.781431
0.783871
0.785172
0.796194
0.794582
0.79158
0.78746
0.782542
0.777145
0.771555
0.765998
0.760643
0.755588
0.750879
0.746524
0.742502
0.738781
0.73533
0.732122
0.729145
0.726399
0.723897
0.721662
0.719726
0.718122
0.716883
0.716037
0.715602
0.715602
0.716037
0.716883
0.718122
0.719726
0.721662
0.723897
0.726399
0.729145
0.732122
0.73533
0.738781
0.742502
0.746524
0.750879
0.755588
0.760643
0.765998
0.771555
0.777145
0.782542
0.78746
0.79158
0.794582
0.796194
0.808065
0.806108
0.802486
0.797562
0.791755
0.785463
0.779022
0.772684
0.766616
0.760907
0.755588
0.750652
0.746073
0.741814
0.737844
0.734142
0.730701
0.727529
0.724644
0.722076
0.71986
0.718031
0.716624
0.715665
0.715174
0.715174
0.715665
0.716624
0.718031
0.71986
0.722076
0.724644
0.727529
0.730701
0.734142
0.737844
0.741814
0.746073
0.750652
0.755588
0.760907
0.766616
0.772684
0.779022
0.785463
0.791755
0.797562
0.802486
0.806108
0.808065
0.820873
0.818535
0.81423
0.808426
0.801649
0.794388
0.787032
0.779856
0.773026
0.766616
0.760643
0.755085
0.749907
0.74507
0.740545
0.736316
0.732382
0.728758
0.725471
0.722555
0.720048
0.717987
0.716406
0.71533
0.71478
0.71478
0.71533
0.716406
0.717987
0.720048
0.722555
0.725471
0.728758
0.732382
0.736316
0.740545
0.74507
0.749907
0.755085
0.760643
0.766616
0.773026
0.779856
0.787032
0.794388
0.801649
0.808426
0.81423
0.818535
0.820873
0.834704
0.831947
0.826889
0.820116
0.812277
0.803957
0.795602
0.787515
0.779856
0.772684
0.765998
0.759764
0.753937
0.748478
0.74336
0.738574
0.734125
0.730036
0.726339
0.723071
0.720272
0.71798
0.716227
0.715037
0.714429
0.714429
0.715037
0.716227
0.71798
0.720272
0.723071
0.726339
0.730036
0.734125
0.738574
0.74336
0.748478
0.753937
0.759764
0.765998
0.772684
0.779856
0.787515
0.795602
0.803957
0.812277
0.820116
0.826889
0.831947
0.834704
0.849585
0.846366
0.840478
0.832636
0.823626
0.81414
0.80469
0.795602
0.787032
0.779022
0.771555
0.764581
0.758052
0.751927
0.746184
0.740819
0.735845
0.731289
0.727187
0.723577
0.720499
0.717989
0.716074
0.714778
0.714116
0.714116
0.714778
0.716074
0.717989
0.720499
0.723577
0.727187
0.731289
0.735845
0.740819
0.746184
0.751927
0.758052
0.764581
0.771555
0.779022
0.787032
0.795602
0.80469
0.81414
0.823626
0.832636
0.840478
0.846366
0.849585
0.865372
0.861648
0.854852
0.845841
0.83555
0.824787
0.81414
0.803957
0.794388
0.785463
0.777145
0.769375
0.762099
0.755276
0.748889
0.742939
0.737445
0.732437
0.727951
0.724025
0.720693
0.717987
0.71593
0.714541
0.713832
0.713832
0.714541
0.71593
0.717987
0.720693
0.724025
0.727951
0.732437
0.737445
0.742939
0.748889
0.755276
0.762099
0.769375
0.777145
0.785463
0.794388
0.803957
0.81414
0.824787
0.83555
0.845841
0.854852
0.861648
0.865372
0.881609
0.877351
0.86959
0.859333
0.847674
0.83555
0.823626
0.812277
0.801649
0.791755
0.782542
0.773942
0.765896
0.758367
0.751341
0.744824
0.738838
0.733412
0.728581
0.724376
0.720826
0.717956
0.715782
0.714317
0.71357
0.71357
0.714317
0.715782
0.717956
0.720826
0.724376
0.728581
0.733412
0.738838
0.744824
0.751341
0.758367
0.765896
0.773942
0.782542
0.791755
0.801649
0.812277
0.823626
0.83555
0.847674
0.859333
0.86959
0.877351
0.881609
0.897382
0.892591
0.883867
0.872362
0.859333
0.845841
0.832636
0.820116
0.808426
0.797562
0.78746
0.778043
0.76925
0.761047
0.753423
0.746388
0.739962
0.734173
0.729048
0.724614
0.72089
0.717891
0.715628
0.714106
0.71333
0.71333
0.714106
0.715628
0.717891
0.72089
0.724614
0.729048
0.734173
0.739962
0.746388
0.753423
0.761047
0.76925
0.778043
0.78746
0.797562
0.808426
0.820116
0.832636
0.845841
0.859333
0.872362
0.883867
0.892591
0.897382
0.91136
0.906093
0.896501
0.883867
0.86959
0.854852
0.840478
0.826889
0.81423
0.802486
0.79158
0.781431
0.771977
0.763186
0.755049
0.747578
0.740791
0.734711
0.729358
0.724751
0.720898
0.717807
0.71548
0.713919
0.713123
0.713123
0.713919
0.71548
0.717807
0.720898
0.724751
0.729358
0.734711
0.740791
0.747578
0.755049
0.763186
0.771977
0.781431
0.79158
0.802486
0.81423
0.826889
0.840478
0.854852
0.86959
0.883867
0.896501
0.906093
0.91136
0.921975
0.916348
0.906093
0.892591
0.877351
0.861648
0.846366
0.831947
0.818535
0.806108
0.794582
0.783871
0.773914
0.76468
0.756164
0.748375
0.74133
0.735046
0.729538
0.724814
0.720877
0.717728
0.715362
0.713777
0.712969
0.712969
0.713777
0.715362
0.717728
0.720877
0.724814
0.729538
0.735046
0.74133
0.748375
0.756164
0.76468
0.773914
0.783871
0.794582
0.806108
0.818535
0.831947
0.846366
0.861648
0.877351
0.892591
0.906093
0.916348
0.921975
0.927797
0.921975
0.91136
0.897382
0.881609
0.865372
0.849585
0.834704
0.820873
0.808065
0.796194
0.785172
0.774939
0.765463
0.756741
0.748782
0.7416
0.735209
0.729621
0.724838
0.72086
0.717682
0.715297
0.713701
0.712888
0.712888
0.713701
0.715297
0.717682
0.72086
0.724838
0.729621
0.735209
0.7416
0.748782
0.756741
0.765463
0.774939
0.785172
0.796194
0.808065
0.820873
0.834704
0.849585
0.865372
0.881609
0.897382
0.91136
0.921975
0.927797
SCALARS HU float 1
LOOKUP_TABLE default
-0.0163513
-0.0486117
-0.0797655
-0.108117
-0.131964
-0.150222
-0.162634
-0.169663
-0.172174
-0.171126
-0.167378
-0.16161
-0.154313
-0.14582
-0.136342
-0.126014
-0.114927
-0.103148
-0.0907401
-0.0777686
-0.0643075
-0.050439
-0.036253
-0.0218454
-0.00731595
0.00731595
0.0218454
0.036253
0.050439
0.0643075
0.0777686
0.0907401
0.103148
0.114927
0.126014
0.136342
0.14582
0.154313
0.16161
0.167378
0.171126
0.172174
0.169663
0.162634
0.150222
0.131964
0.108117
0.0797655
0.0486117
0.0163513
-0.0163305
-0.0484964
-0.0794408
-0.107493
-0.13102
-0.149002
-0.161215
-0.168123
-0.170571
-0.169494
-0.165737
-0.159972
-0.15269
-0.144226
-0.134796
-0.12454
-0.113547
-0.101884
-0.0896113
-0.0767915
-0.0634944
-0.049799
-0.035792
-0.0215673
-0.00722254
0.00722254
0.0215673
0.035792
0.049799
0.0634944
0.0767915
0.0896113
0.101884
0.113547
0.12454
0.134796
0.144226
0.15269
0.159972
0.165737
0.169494
0.170571
0.168123
0.161215
0.149002
0.13102
0.107493
0.0794408
0.0484964
0.0163305
-0.0162397
-0.0481383
-0.0786329
-0.106103
-0.129034
-0.146519
-0.158382
-0.165086
-0.167434
-0.166321
-0.162561
-0.156815
-0.14957
-0.141169
-0.131836
-0.121715
-0.1109
-0.0994571
-0.0874418
-0.0749109
-0.0619275
-0.0485642
-0.034902
-0.02103
-0.00704203
0.00704203
0.02103
0.034902
0.0485642
0.0619275
0.0749109
0.0874418
0.0994571
0.1109
0.121715
0.131836
0.141169
0.14957
0.156815
0.162561
0.166321
0.167434
0.165086
0.158382
0.146519
0.129034
0.106103
0.0786329
0.0481383
0.0162397
-0.016024
-0.0474013
-0.0771841
-0.103824
-0.125955
-0.142792
-0.15422
-0.160683
-0.162929
-0.161797
-0.158063
-0.152366
-0.145192
-0.13689
-0.127697
-0.117767
-0.107198
-0.0960573
-0.0843968
-0.0722662
-0.05972
-0.0468217
-0.0336444
-0.0202701
-0.00678668
0.00678668
0.0202701
0.0336444
0.0468217
0.05972
0.0722662
0.0843968
0.0960573
0.107198
0.117767
0.127697
0.13689
0.145192
0.152366
0.158063
0.161797
0.162929
0.160683
0.15422
0.142792
0.125955
0.103824
0.0771841
0.0474013
0.016024
-0.0156576
-0.0462291
-0.0750536
-0.100671
-0.121869
-0.13798
-0.148938
-0.155157
-0.157324
-0.156209
-0.152541
-0.146934
-0.139871
-0.131707
-0.122693
-0.112994
-0.102719
-0.0919376
-0.0806995
-0.0690477
-0.0570276
-0.0446927
-0.0321058
-0.0193396
-0.00647385
0.00647385
0.0193396
0.0321058
0.0446927
0.0570276
0.0690477
0.0806995
0.0919376
0.102719
0.112994
0.122693
0.131707
0.139871
0.146934
0.152541
0.156209
0.157324
0.155157
0.148938
0.13798
0.121869
0.100671
0.0750536
0.0462291
0.0156576
-0.0151496
-0.0446598
-0.0723285
-0.0967944
-0.116988
-0.132345
-0.142832
-0.148828
-0.150946
-0.149891
-0.146335
-0.140865
-0.133954
-0.125965
-0.117161
-0.107724
-0.0977721
-0.087382
-0.0766036
-0.0654748
-0.0540327
-0.04232
-0.0303886
-0.0183001
-0.00612433
0.00612433
0.0183001
0.0303886
0.04232
0.0540327
0.0654748
0.0766036
0.087382
0.0977721
0.107724
0.117161
0.125965
0.133954
0.140865
0.146335
0.149891
0.150946
0.148828
0.142832
0.132345
0.116988
0.0967944
0.0723285
0.0446598
0.0151496
-0.0145298
-0.0427834
-0.0691626
-0.0924068
-0.111574
-0.126181
-0.136218
-0.142018
-0.144126
-0.143172
-0.139775
-0.134487
-0.127771
-0.119993
-0.111428
-0.102272
-0.0926587
-0.0826716
-0.0723638
-0.0617709
-0.0509227
-0.0398524
-0.0286004
-0.0172168
-0.00575996
0.00575996
0.0172168
0.0286004
0.0398524
0.0509227
0.0617709
0.0723638
0.0826716
0.0926587
0.102272
0.111428
0.119993
0.127771
0.134487
0.139775
0.143172
0.144126
0.142018
0.136218
0.126181
0.111574
0.0924068
0.0691626
0.0427834
0.0145298
-0.0138328
-0.0407008
-0.065714
-0.0877127
-0.105864
-0.119752
-0.129371
-0.135009
-0.137144
-0.136334
-0.13314
-0.12808
-0.121601
-0.114069
-0.10577
-0.0969118
-0.0876419
-0.0780546
-0.0682083
-0.0581383
-0.0478699
-0.0374277
-0.0268417
-0.0161507
-0.0054014
0.0054014
0.0161507
0.0268417
0.0374277
0.0478699
0.0581383
0.0682083
0.0780546
0.0876419
0.0969118
0.10577
0.114069
0.121601
0.12808
0.13314
0.136334
0.137144
0.135009
0.129371
0.119752
0.105864
0.0877127
0.065714
0.0407008
0.0138328
-0.0130842
-0.0384828
-0.0620916
-0.0828504
-0.100019
-0.113233
-0.122479
-0.128001
-0.130207
-0.129585
-0.126641
-0.121855
-0.115656
-0.108406
-0.100397
-0.0918503
-0.0829246
-0.0737252
-0.0643174
-0.0547392
-0.0450132
-0.035158
-0.0251948
-0.0151521
-0.00506557
0.00506557
0.0151521
0.0251948
0.035158
0.0450132
0.0547392
0.0643174
0.0737252
0.0829246
0.0918503
0.100397
0.108406
0.115656
0.121855
0.126641
0.129585
0.130207
0.128001
0.122479
0.113233
0.100019
0.0828504
0.0620916
0.0384828
0.0130842
-0.0122972
-0.0361684
-0.0583539
-0.0778925
-0.0941237
-0.106718
-0.115648
-0.121106
-0.123434
-0.123051
-0.120407
-0.115945
-0.11007
-0.103139
-0.0954473
-0.0872245
-0.078641
-0.0698129
-0.060813
-0.0516836
-0.0424479
-0.0331207
-0.0237166
-0.0142559
-0.00476415
0.00476415
0.0142559
0.0237166
0.0331207
0.0424479
0.0516836
0.060813
0.0698129
0.078641
0.0872245
0.0954473
0.103139
0.11007
0.115945
0.120407
0.123051
0.123434
0.121106
0.115648
0.106718
0.0941237
0.0778925
0.0583539
0.0361684
0.0122972
-0.0114792
-0.0337758
-0.054526
-0.072868
-0.088209
-0.100243
-0.108916
-0.114371
-0.116877
-0.116789
-0.114501
-0.110414
-0.104912
-0.0983393
-0.0909911
-0.0831045
-0.0748595
-0.0663826
-0.0577561
-0.0490275
-0.0402226
-0.0313554
-0.0224367
-0.01348
-0.00450328
0.00450328
0.01348
0.0224367
0.0313554
0.0402226
0.0490275
0.0577561
0.0663826
0.0748595
0.0831045
0.0909911
0.0983393
0.104912
0.110414
0.114501
0.116789
0.116877
0.114371
0.108916
0.100243
0.088209
0.072868
0.054526
0.0337758
0.0114792
-0.0106349
-0.0313171
-0.050622
-0.0677882
-0.0822827
-0.0938113
-0.102289
-0.1078
-0.110544
-0.11081
-0.108934
-0.105276
-0.100194
-0.0940179
-0.0870399
-0.0795016
-0.0715912
-0.0634453
-0.0551559
-0.0467787
-0.0383442
-0.0298678
-0.0213588
-0.0128268
-0.00428385
0.00428385
0.0128268
0.0213588
0.0298678
0.0383442
0.0467787
0.0551559
0.0634453
0.0715912
0.0795016
0.0870399
0.0940179
0.100194
0.105276
0.108934
0.11081
0.110544
0.1078
0.102289
0.0938113
0.0822827
0.0677882
0.050622
0.0313171
0.0106349
-0.00977118
-0.028809
-0.0466618
-0.0626695
-0.0763539
-0.087425
-0.0957618
-0.101385
-0.104424
-0.1051
-0.103691
-0.100513
-0.0958942
-0.0901499
-0.0835655
-0.0763849
-0.0688036
-0.0609686
-0.052982
-0.0449091
-0.0367877
-0.0286372
-0.020468
-0.0122872
-0.00410246
0.00410246
0.0122872
0.020468
0.0286372
0.0367877
0.0449091
0.052982
0.0609686
0.0688036
0.0763849
0.0835655
0.0901499
0.0958942
0.100513
0.103691
0.1051
0.104424
0.101385
0.0957618
0.087425
0.0763539
0.0626695
0.0466618
0.028809
0.00977118
-0.00889845
-0.0262789
-0.0426807
-0.0575466
-0.0704496
-0.0811008
-0.0893395
-0.095121
-0.0985051
-0.0996393
-0.0987445
-0.0960906
-0.091973
-0.0866886
-0.0805155
-0.0736978
-0.0664381
-0.0588933
-0.0511776
-0.0433671
-0.0355085
-0.0276275
-0.0197372
-0.0118445
-0.00395363
0.00395363
0.0118445
0.0197372
0.0276275
0.0355085
0.0433671
0.0511776
0.0588933
0.0664381
0.0736978
0.0805155
0.0866886
0.091973
0.0960906
0.0987445
0.0996393
0.0985051
0.095121
0.0893395
0.0811008
0.0704496
0.0575466
0.0426807
0.0262789
0.00889845
-0.0080305