# vtk DataFile Version 2.0
HPC Tutorials: Michael Bader, Kaveh Rahnema, Oliver Meister
ASCII
DATASET RECTILINEAR_GRID
DIMENSIONS 51 51 1
X_COORDINATES 51 float
0
0.02
0.04
0.06
0.08
0.1
0.12
0.14
0.16
0.18
0.2
0.22
0.24
0.26
0.28
0.3
0.32
0.34
0.36
0.38
0.4
0.42
0.44
0.46
0.48
0.5
0.52
0.54
0.56
0.58
0.6
0.62
0.64
0.66
0.68
0.7
0.72
0.74
0.76
0.78
0.8
0.82
0.84
0.86
0.88
0.9
0.92
0.94
0.96
0.98
1
Y_COORDINATES 51 float
0
0.02
0.04
0.06
0.08
0.1
0.12
0.14
0.16
0.18
0.2
0.22
0.24
0.26
0.28
0.3
0.32
0.34
0.36
0.38
0.4
0.42
0.44
0.46
0.48
0.5
0.52
0.54
0.56
0.58
0.6
0.62
0.64
0.66
0.68
0.7
0.72
0.74
0.76
0.78
0.8
0.82
0.84
0.86
0.88
0.9
0.92
0.94
0.96
0.98
1
Z_COORDINATES 1 float
0
CELL_DATA 2500
SCALARS H float 1
LOOKUP_TABLE default
0.761985
0.762346
0.763029
0.764027
0.765327
0.766908
0.768742
0.770786
0.772981
0.775244
0.777464
0.779492
0.781143
0.782199
0.782433
0.781654
0.779761
0.776795
0.772976
0.768676
0.764355
0.760451
0.757308
0.755137
0.754043
0.754043
0.755137
0.757308
0.760451
0.764355
0.768676
0.772976
0.776795
0.779761
0.781654
0.782433
0.782199
0.781143
0.779492
0.777464
0.775244
0.772981
0.770786
0.768742
0.766908
0.765327
0.764027
0.763029
0.762346
0.761985
0.762346
0.762703
0.763381
0.764371
0.765658
0.767224
0.769037
0.771054
0.773216
0.775437
0.777606
0.779571
0.781148
0.782118
0.782254
0.781368
0.779365
0.776293
0.772378
0.767998
0.763615
0.759667
0.756493
0.754304
0.753201
0.753201
0.754304
0.756493
0.759667
0.763615
0.767998
0.772378
0.776293
0.779365
0.781368
0.782254
0.782118
0.781148
0.779571
0.777606
0.775437
0.773216
0.771054
0.769037
0.767224
0.765658
0.764371
0.763381
0.762703
0.762346
0.763029
0.763381
0.764048
0.765021
0.766285
0.767819
0.769591
0.771556
0.773652
0.775791
0.777859
0.779702
0.781132
0.78193
0.781873
0.780778
0.778559
0.77528
0.771178
0.766643
0.76214
0.758107
0.754876
0.752651
0.751531
0.751531
0.752651
0.754876
0.758107
0.76214
0.766643
0.771178
0.77528
0.778559
0.780778
0.781873
0.78193
0.781132
0.779702
0.777859
0.775791
0.773652
0.771556
0.769591
0.767819
0.766285
0.765021
0.764048
0.763381
0.763029
0.764027
0.764371
0.765021
0.765968
0.767196
0.768682
0.770391
0.772277
0.774273
0.776289
0.778204
0.779864
0.781075
0.781617
0.781272
0.779867
0.777332
0.77375
0.769378
0.764621
0.759948
0.755793
0.752481
0.750206
0.749062
0.749062
0.750206
0.752481
0.755793
0.759948
0.764621
0.769378
0.77375
0.777332
0.779867
0.781272
0.781617
0.781075
0.779864
0.778204
0.776289
0.774273
0.772277
0.770391
0.768682
0.767196
0.765968
0.765021
0.764371
0.764027
0.765327
0.765658
0.766285
0.767196
0.768374
0.769793
0.771417
0.773194
0.775054
0.776903
0.778614
0.780026
0.780944
0.781147
0.780422
0.778611
0.775666
0.771695
0.766981
0.761946
0.757064
0.752761
0.74935
0.747016
0.745842
0.745842
0.747016
0.74935
0.752761
0.757064
0.761946
0.766981
0.771695
0.775666
0.778611
0.780422
0.781147
0.780944
0.780026
0.778614
0.776903
0.775054
0.773194
0.771417
0.769793
0.768374
0.767196
0.766285
0.765658
0.765327
0.766908
0.767224
0.767819
0.768682
0.769793
0.771125
0.772636
0.774273
0.775958
0.777593
0.779043
0.780143
0.780693
0.780472
0.779278
0.776972
0.773533
0.769103
0.763993
0.758642
0.753527
0.749064
0.745548
0.743149
0.741944
0.741944
0.743149
0.745548
0.749064
0.753527
0.758642
0.763993
0.769103
0.773533
0.776972
0.779278
0.780472
0.780693
0.780143
0.779043
0.777593
0.775958
0.774273
0.772636
0.771125
0.769793
0.768682
0.767819
0.767224
0.766908
0.768742
0.769037
0.769591
0.770391
0.771417
0.772636
0.774006
0.775465
0.776933
0.778302
0.779433
0.780152
0.780256
0.779529
0.777782
0.774902
0.770901
0.765959
0.760421
0.754742
0.749394
0.744775
0.741159
0.7387
0.737466
0.737466
0.7387
0.741159
0.744775
0.749394
0.754742
0.760421
0.765959
0.770901
0.774902
0.777782
0.779529
0.780256
0.780152
0.779433
0.778302
0.776933
0.775465
0.774006
0.772636
0.771417
0.770391
0.769591
0.769037
0.768742
0.770786
0.771054
0.771556
0.772277
0.773194
0.774273
0.775465
0.776706
0.777907
0.778954
0.779701
0.779966
0.779546
0.778233
0.775858
0.772338
0.767729
0.762252
0.756286
0.750295
0.744738
0.739988
0.736293
0.733788
0.732532
0.732532
0.733788
0.736293
0.739988
0.744738
0.750295
0.756286
0.762252
0.767729
0.772338
0.775858
0.778233
0.779546
0.779966
0.779701
0.778954
0.777907
0.776706
0.775465
0.774273
0.773194
0.772277
0.771556
0.771054
0.770786
0.772981
0.773216
0.773652
0.774273
0.775054
0.775958
0.776933
0.777907
0.778787
0.779449
0.77974
0.779476
0.778454
0.77648
0.773413
0.76921
0.763976
0.757977
0.751618
0.745363
0.739649
0.734815
0.731078
0.728553
0.727286
0.727286
0.728553
0.731078
0.734815
0.739649
0.745363
0.751618
0.757977
0.763976
0.76921
0.773413
0.77648
0.778454
0.779476
0.77974
0.779449
0.778787
0.777907
0.776933
0.775958
0.775054
0.774273
0.773652
0.773216
0.772981
0.775244
0.775437
0.775791
0.776289
0.776903
0.777593
0.778302
0.778954
0.779449
0.779656
0.779416
0.778544
0.776845
0.774149
0.770348
0.765451
0.759614
0.753146
0.746468
0.740031
0.734237
0.729384
0.725655
0.723142
0.721882
0.721882
0.723142
0.725655
0.729384
0.734237
0.740031
0.746468
0.753146
0.759614
0.765451
0.770348
0.774149
0.776845
0.778544
0.779416
0.779656
0.779449
0.778954
0.778302
0.777593
0.776903
0.776289
0.775791
0.775437
0.775244
0.777464
0.777606
0.777859
0.778204
0.778614
0.779043
0.779433
0.779701
0.77974
0.779416
0.778568
0.777013
0.774574
0.771114
0.766572
0.76101
0.754638
0.747797
0.74091
0.7344
0.728623
0.723828
0.720164
0.7177
0.716466
0.716466
0.7177
0.720164
0.723828
0.728623
0.7344
0.74091
0.747797
0.754638
0.76101
0.766572
0.771114
0.774574
0.777013
0.778568
0.779416
0.77974
0.779701
0.779433
0.779043
0.778614
0.778204
0.777859
0.777606
0.777464
0.779492
0.779571
0.779702
0.779864
0.780026
0.780143
0.780152
0.779966
0.779476
0.778544
0.777013
0.774713
0.771497
0.767268
0.76202
0.755873
0.74908
0.742003
0.735047
0.728591
0.722934
0.718277
0.714733
0.712357
0.711166
0.711166
0.712357
0.714733
0.718277
0.722934
0.728591
0.735047
0.742003
0.74908
0.755873
0.76202
0.767268
0.771497
0.774713
0.777013
0.778544
0.779476
0.779966
0.780152
0.780143
0.780026
0.779864
0.779702
0.779571
0.779492
0.781143
0.781148
0.781132
0.781075
0.780944
0.780693
0.780256
0.779546
0.778454
0.776845
0.774574
0.771497
0.767505
0.762549
0.756683
0.75008
0.743026
0.735878
0.729005
0.72273
0.717291
0.712843
0.70947
0.707211
0.70608
0.70608
0.707211
0.70947
0.712843
0.717291
0.72273
0.729005
0.735878
0.743026
0.75008
0.756683
0.762549
0.767505
0.771497
0.774574
0.776845
0.778454
0.779546
0.780256
0.780693
0.780944
0.781075
0.781132
0.781148
0.781143
0.782199
0.782118
0.78193
0.781617
0.781147
0.780472
0.779529
0.778233
0.77648
0.774149
0.771114
0.767268
0.762549
0.756965
0.750625
0.743742
0.736612
0.729567
0.722925
0.716942
0.711802
0.707617
0.704451
0.702331
0.701269
0.701269
0.702331
0.704451
0.707617
0.711802
0.716942
0.722925
0.729567
0.736612
0.743742
0.750625
0.756965
0.762549
0.767268
0.771114
0.774149
0.77648
0.778233
0.779529
0.780472
0.781147
0.781617
0.78193
0.782118
0.782199
0.782433
0.782254
0.781873
0.781272
0.780422
0.779278
0.777782
0.775858
0.773413
0.770348
0.766572
0.76202
0.756683
0.750625
0.743998
0.737036
0.73002
0.72324
0.716948
0.711341
0.706551
0.702663
0.699723
0.697753
0.696767
0.696767
0.697753
0.699723
0.702663
0.706551
0.711341
0.716948
0.72324
0.73002
0.737036
0.743998
0.750625
0.756683
0.76202
0.766572
0.770348
0.773413
0.775858
0.777782
0.779278
0.780422
0.781272
0.781873
0.782254
0.782433
0.781654
0.781368
0.780778
0.779867
0.778611
0.776972
0.774902
0.772338
0.76921
0.765451
0.76101
0.755873
0.75008
0.743742
0.737036
0.730191
0.723457
0.717063
0.711203
0.706017
0.701603
0.698021
0.69531
0.693493
0.692581
0.692581
0.693493
0.69531
0.698021
0.701603
0.706017
0.711203
0.717063
0.723457
0.730191
0.737036
0.743742
0.75008
0.755873
0.76101
0.765451
0.76921
0.772338
0.774902
0.776972
0.778611
0.779867
0.780778
0.781368
0.781654
0.779761
0.779365
0.778559
0.777332
0.775666
0.773533
0.770901
0.767729
0.763976
0.759614
0.754638
0.74908
0.743026
0.736612
0.73002
0.723457
0.717121
0.711189
0.705795
0.701042
0.696999
0.693715
0.691224
0.689551
0.68871
0.68871
0.689551
0.691224
0.693715
0.696999
0.701042
0.705795
0.711189
0.717121
0.723457
0.73002
0.736612
0.743026
0.74908
0.754638
0.759614
0.763976
0.767729
0.770901
0.773533
0.775666
0.777332
0.778559
0.779365
0.779761
0.776795
0.776293
0.77528
0.77375
0.771695
0.769103
0.765959
0.762252
0.757977
0.753146
0.747797
0.742003
0.735878
0.729567
0.72324
0.717063
0.711189
0.705739
0.700808
0.696468
0.692771
0.689761
0.687471
0.685929
0.685153
0.685153
0.685929
0.687471
0.689761
0.692771
0.696468
0.700808
0.705739
0.711189
0.717063
0.72324
0.729567
0.735878
0.742003
0.747797
0.753146
0.757977
0.762252
0.765959
0.769103
0.771695
0.77375
0.77528
0.776293
0.776795
0.772976
0.772378
0.771178
0.769378
0.766981
0.763993
0.760421
0.756286
0.751618
0.746468
0.74091
0.735047
0.729005
0.722925
0.716948
0.711203
0.705795
0.700808
0.696305
0.692337
0.688948
0.686179
0.684065
0.682638
0.681918
0.681918
0.682638
0.684065
0.686179
0.688948
0.692337
0.696305
0.700808
0.705795
0.711203
0.716948
0.722925
0.729005
0.735047
0.74091
0.746468
0.751618
0.756286
0.760421
0.763993
0.766981
0.769378
0.771178
0.772378
0.772976
0.768676
0.767998
0.766643
0.764621
0.761946
0.758642
0.754742
0.750295
0.745363
0.740031
0.7344
0.728591
0.72273
0.716942
0.711341
0.706017
0.701042
0.696468
0.692337
0.688688
0.685561
0.682995
0.68103
0.679699
0.679027
0.679027
0.679699
0.68103
0.682995
0.685561
0.688688
0.692337
0.696468
0.701042
0.706017
0.711341
0.716942
0.72273
0.728591
0.7344
0.740031
0.745363
0.750295
0.754742
0.758642
0.761946
0.764621
0.766643
0.767998
0.768676
0.764355
0.763615
0.76214
0.759948
0.757064
0.753527
0.749394
0.744738
0.739649
0.734237
0.728623
0.722934
0.717291
0.711802
0.706551
0.701603
0.696999
0.692771
0.688948
0.685561
0.682647
0.680246
0.678401
0.677148
0.676514
0.676514
0.677148
0.678401
0.680246
0.682647
0.685561
0.688948
0.692771
0.696999
0.701603
0.706551
0.711802
0.717291
0.722934
0.728623
0.734237
0.739649
0.744738
0.749394
0.753527
0.757064
0.759948
0.76214
0.763615
0.764355
0.760451
0.759667
0.758107
0.755793
0.752761
0.749064
0.744775
0.739988
0.734815
0.729384
0.723828
0.718277
0.712843
0.707617
0.702663
0.698021
0.693715
0.689761
0.686179
0.682995
0.680246
0.677974
0.676222
0.675029
0.674425
0.674425
0.675029
0.676222
0.677974
0.680246
0.682995
0.686179
0.689761
0.693715
0.698021
0.702663
0.707617
0.712843
0.718277
0.723828
0.729384
0.734815
0.739988
0.744775
0.749064
0.752761
0.755793
0.758107
0.759667
0.760451
0.757308
0.756493
0.754876
0.752481
0.74935
0.745548
0.741159
0.736293
0.731078
0.725655
0.720164
0.714733
0.70947
0.704451
0.699723
0.69531
0.691224
0.687471
0.684065
0.68103
0.678401
0.676222
0.674537
0.673388
0.672806
0.672806
0.673388
0.674537
0.676222
0.678401
0.68103
0.684065
0.687471
0.691224
0.69531
0.699723
0.704451
0.70947
0.714733
0.720164
0.725655
0.731078
0.736293
0.741159
0.745548
0.74935
0.752481
0.754876
0.756493
0.757308
0.755137
0.754304
0.752651
0.750206
0.747016
0.743149
0.7387
0.733788
0.728553
0.723142
0.7177
0.712357
0.707211
0.702331
0.697753
0.693493
0.689551
0.685929
0.682638
0.679699
0.677148
0.675029
0.673388
0.672268
0.671699
0.671699
0.672268
0.673388
0.675029
0.677148
0.679699
0.682638
0.685929
0.689551
0.693493
0.697753
0.702331
0.707211
0.712357
0.7177
0.723142
0.728553
0.733788
0.7387
0.743149
0.747016
0.750206
0.752651
0.754304
0.755137
0.754043
0.753201
0.751531
0.749062
0.745842
0.741944
0.737466
0.732532
0.727286
0.721882
0.716466
0.711166
0.70608
0.701269
0.696767
0.692581
0.68871
0.685153
0.681918
0.679027
0.676514
0.674425
0.672806
0.671699
0.671137
0.671137
0.671699
0.672806
0.674425
0.676514
0.679027
0.681918
0.685153
0.68871
0.692581
0.696767
0.701269
0.70608
0.711166
0.716466
0.721882
0.727286
0.732532
0.737466
0.741944
0.745842
0.749062
0.751531
0.753201
0.754043
0.754043
0.753201
0.751531
0.749062
0.745842
0.741944
0.737466
0.732532
0.727286
0.721882
0.716466
0.711166
0.70608
0.701269
0.696767
0.692581
0.68871
0.685153
0.681918
0.679027
0.676514
0.674425
0.672806
0.671699
0.671137
0.671137
0.671699
0.672806
0.674425
0.676514
0.679027
0.681918
0.685153
0.68871
0.692581
0.696767
0.701269
0.70608
0.711166
0.716466
0.721882
0.727286
0.732532
0.737466
0.741944
0.745842
0.749062
0.751531
0.753201
0.754043
0.755137
0.754304
0.752651
0.750206
0.747016
0.743149
0.7387
0.733788
0.728553
0.723142
0.7177
0.712357
0.707211
0.702331
0.697753
0.693493
0.689551
0.685929
0.682638
0.679699
0.677148
0.675029
0.673388
0.672268
0.671699
0.671699
0.672268
0.673388
0.675029
0.677148
0.679699
0.682638
0.685929
0.689551
0.693493
0.697753
0.702331
0.707211
0.712357
0.7177
0.723142
0.728553
0.733788
0.7387
0.743149
0.747016
0.750206
0.752651
0.754304
0.755137
0.757308
0.756493
0.754876
0.752481
0.74935
0.745548
0.741159
0.736293
0.731078
0.725655
0.720164
0.714733
0.70947
0.704451
0.699723
0.69531
0.691224
0.687471
0.684065
0.68103
0.678401
0.676222
0.674537
0.673388
0.672806
0.672806
0.673388
0.674537
0.676222
0.678401
0.68103
0.684065
0.687471
0.691224
0.69531
0.699723
0.704451
0.70947
0.714733
0.720164
0.725655
0.731078
0.736293
0.741159
0.745548
0.74935
0.752481
0.754876
0.756493
0.757308
0.760451
0.759667
0.758107
0.755793
0.752761
0.749064
0.744775
0.739988
0.734815
0.729384
0.723828
0.718277
0.712843
0.707617
0.702663
0.698021
0.693715
0.689761
0.686179
0.682995
0.680246
0.677974
0.676222
0.675029
0.674425
0.674425
0.675029
0.676222
0.677974
0.680246
0.682995
0.686179
0.689761
0.693715
0.698021
0.702663
0.707617
0.712843
0.718277
0.723828
0.729384
0.734815
0.739988
0.744775
0.749064
0.752761
0.755793
0.758107
0.759667
0.760451
0.764355
0.763615
0.76214
0.759948
0.757064
0.753527
0.749394
0.744738
0.739649
0.734237
0.728623
0.722934
0.717291
0.711802
0.706551
0.701603
0.696999
0.692771
0.688948
0.685561
0.682647
0.680246
0.678401
0.677148
0.676514
0.676514
0.677148
0.678401
0.680246
0.682647
0.685561
0.688948
0.692771
0.696999
0.701603
0.706551
0.711802
0.717291
0.722934
0.728623
0.734237
0.739649
0.744738
0.749394
0.753527
0.757064
0.759948
0.76214
0.763615
0.764355
0.768676
0.767998
0.766643
0.764621
0.761946
0.758642
0.754742
0.750295
0.745363
0.740031
0.7344
0.728591
0.72273
0.716942
0.711341
0.706017
0.701042
0.696468
0.692337
0.688688
0.685561
0.682995
0.68103
0.679699
0.679027
0.679027
0.679699
0.68103
0.682995
0.685561
0.688688
0.692337
0.696468
0.701042
0.706017
0.711341
0.716942
0.72273
0.728591
0.7344
0.740031
0.745363
0.750295
0.754742
0.758642
0.761946
0.764621
0.766643
0.767998
0.768676
0.772976
0.772378
0.771178
0.769378
0.766981
0.763993
0.760421
0.756286
0.751618
0.746468
0.74091
0.735047
0.729005
0.722925
0.716948
0.711203
0.705795
0.700808
0.696305
0.692337
0.688948
0.686179
0.684065
0.682638
0.681918
0.681918
0.682638
0.684065
0.686179
0.688948
0.692337
0.696305
0.700808
0.705795
0.711203
0.716948
0.722925
0.729005
0.735047
0.74091
0.746468
0.751618
0.756286
0.760421
0.763993
0.766981
0.769378
0.771178
0.772378
0.772976
0.776795
0.776293
0.77528
0.77375
0.771695
0.769103
0.765959
0.762252
0.757977
0.753146
0.747797
0.742003
0.735878
0.729567
0.72324
0.717063
0.711189
0.705739
0.700808
0.696468
0.692771
0.689761
0.687471
0.685929
0.685153
0.685153
0.685929
0.687471
0.689761
0.692771
0.696468
0.700808
0.705739
0.711189
0.717063
0.72324
0.729567
0.735878
0.742003
0.747797
0.753146
0.757977
0.762252
0.765959
0.769103
0.771695
0.77375
0.77528
0.776293
0.776795
0.779761
0.779365
0.778559
0.777332
0.775666
0.773533
0.770901
0.767729
0.763976
0.759614
0.754638
0.74908
0.743026
0.736612
0.73002
0.723457
0.717121
0.711189
0.705795
0.701042
0.696999
0.693715
0.691224
0.689551
0.68871
0.68871
0.689551
0.691224
0.693715
0.696999
0.701042
0.705795
0.711189
0.717121
0.723457
0.73002
0.736612
0.743026
0.74908
0.754638
0.759614
0.763976
0.767729
0.770901
0.773533
0.775666
0.777332
0.778559
0.779365
0.779761
0.781654
0.781368
0.780778
0.779867
0.778611
0.776972
0.774902
0.772338
0.76921
0.765451
0.76101
0.755873
0.75008
0.743742
0.737036
0.730191
0.723457
0.717063
0.711203
0.706017
0.701603
0.698021
0.69531
0.693493
0.692581
0.692581
0.693493
0.69531
0.698021
0.701603
0.706017
0.711203
0.717063
0.723457
0.730191
0.737036
0.743742
0.75008
0.755873
0.76101
0.765451
0.76921
0.772338
0.774902
0.776972
0.778611
0.779867
0.780778
0.781368
0.781654
0.782433
0.782254
0.781873
0.781272
0.780422
0.779278
0.777782
0.775858
0.773413
0.770348
0.766572
0.76202
0.756683
0.750625
0.743998
0.737036
0.73002
0.72324
0.716948
0.711341
0.706551
0.702663
0.699723
0.697753
0.696767
0.696767
0.697753
0.699723
0.702663
0.706551
0.711341
0.716948
0.72324
0.73002
0.737036
0.743998
0.750625
0.756683
0.76202
0.766572
0.770348
0.773413
0.775858
0.777782
0.779278
0.780422
0.781272
0.781873
0.782254
0.782433
0.782199
0.782118
0.78193
0.781617
0.781147
0.780472
0.779529
0.778233
0.77648
0.774149
0.771114
0.767268
0.762549
0.756965
0.750625
0.743742
0.736612
0.729567
0.722925
0.716942
0.711802
0.707617
0.704451
0.702331
0.701269
0.701269
0.702331
0.704451
0.707617
0.711802
0.716942
0.722925
0.729567
0.736612
0.743742
0.750625
0.756965
0.762549
0.767268
0.771114
0.774149
0.77648
0.778233
0.779529
0.780472
0.781147
0.781617
0.78193
0.782118
0.782199
0.781143
0.781148
0.781132
0.781075
0.780944
0.780693
0.780256
0.779546
0.778454
0.776845
0.774574
0.771497
0.767505
0.762549
0.756683
0.75008
0.743026
0.735878
0.729005
0.72273
0.717291
0.712843
0.70947
0.707211
0.70608
0.70608
0.707211
0.70947
0.712843
0.717291
0.72273
0.729005
0.735878
0.743026
0.75008
0.756683
0.762549
0.767505
0.771497
0.774574
0.776845
0.778454
0.779546
0.780256
0.780693
0.780944
0.781075
0.781132
0.781148
0.781143
0.779492
0.779571
0.779702
0.779864
0.780026
0.780143
0.780152
0.779966
0.779476
0.778544
0.777013
0.774713
0.771497
0.767268
0.76202
0.755873
0.74908
0.742003
0.735047
0.728591
0.722934
0.718277
0.714733
0.712357
0.711166
0.711166
0.712357
0.714733
0.718277
0.722934
0.728591
0.735047
0.742003
0.74908
0.755873
0.76202
0.767268
0.771497
0.774713
0.777013
0.778544
0.779476
0.779966
0.780152
0.780143
0.780026
0.779864
0.779702
0.779571
0.779492
0.777464
0.777606
0.777859
0.778204
0.778614
0.779043
0.779433
0.779701
0.77974
0.779416
0.778568
0.777013
0.774574
0.771114
0.766572
0.76101
0.754638
0.747797
0.74091
0.7344
0.728623
0.723828
0.720164
0.7177
0.716466
0.716466
0.7177
0.720164
0.723828
0.728623
0.7344
0.74091
0.747797
0.754638
0.76101
0.766572
0.771114
0.774574
0.777013
0.778568
0.779416
0.77974
0.779701
0.779433
0.779043
0.778614
0.778204
0.777859
0.777606
0.777464
0.775244
0.775437
0.775791
0.776289
0.776903
0.777593
0.778302
0.778954
0.779449
0.779656
0.779416
0.778544
0.776845
0.774149
0.770348
0.765451
0.759614
0.753146
0.746468
0.740031
0.734237
0.729384
0.725655
0.723142
0.721882
0.721882
0.723142
0.725655
0.729384
0.734237
0.740031
0.746468
0.753146
0.759614
0.765451
0.770348
0.774149
0.776845
0.778544
0.779416
0.779656
0.779449
0.778954
0.778302
0.777593
0.776903
0.776289
0.775791
0.775437
0.775244
0.772981
0.773216
0.773652
0.774273
0.775054
0.775958
0.776933
0.777907
0.778787
0.779449
0.77974
0.779476
0.778454
0.77648
0.773413
0.76921
0.763976
0.757977
0.751618
0.745363
0.739649
0.734815
0.731078
0.728553
0.727286
0.727286
0.728553
0.731078
0.734815
0.739649
0.745363
0.751618
0.757977
0.763976
0.76921
0.773413
0.77648
0.778454
0.779476
0.77974
0.779449
0.778787
0.777907
0.776933
0.775958
0.775054
0.774273
0.773652
0.773216
0.772981
0.770786
0.771054
0.771556
0.772277
0.773194
0.774273
0.775465
0.776706
0.777907
0.778954
0.779701
0.779966
0.779546
0.778233
0.775858
0.772338
0.767729
0.762252
0.756286
0.750295
0.744738
0.739988
0.736293
0.733788
0.732532
0.732532
0.733788
0.736293
0.739988
0.744738
0.750295
0.756286
0.762252
0.767729
0.772338
0.775858
0.778233
0.779546
0.779966
0.779701
0.778954
0.777907
0.776706
0.775465
0.774273
0.773194
0.772277
0.771556
0.771054
0.770786
0.768742
0.769037
0.769591
0.770391
0.771417
0.772636
0.774006
0.775465
0.776933
0.778302
0.779433
0.780152
0.780256
0.779529
0.777782
0.774902
0.770901
0.765959
0.760421
0.754742
0.749394
0.744775
0.741159
0.7387
0.737466
0.737466
0.7387
0.741159
0.744775
0.749394
0.754742
0.760421
0.765959
0.770901
0.774902
0.777782
0.779529
0.780256
0.780152
0.779433
0.778302
0.776933
0.775465
0.774006
0.772636
0.771417
0.770391
0.769591
0.769037
0.768742
0.766908
0.767224
0.767819
0.768682
0.769793
0.771125
0.772636
0.774273
0.775958
0.777593
0.779043
0.780143
0.780693
0.780472
0.779278
0.776972
0.773533
0.769103
0.763993
0.758642
0.753527
0.749064
0.745548
0.743149
0.741944
0.741944
0.743149
0.745548
0.749064
0.753527
0.758642
0.763993
0.769103
0.773533
0.776972
0.779278
0.780472
0.780693
0.780143
0.779043
0.777593
0.775958
0.774273
0.772636
0.771125
0.769793
0.768682
0.767819
0.767224
0.766908
0.765327
0.765658
0.766285
0.767196
0.768374
0.769793
0.771417
0.773194
0.775054
0.776903
0.778614
0.780026
0.780944
0.781147
0.780422
0.778611
0.775666
0.771695
0.766981
0.761946
0.757064
0.752761
0.74935
0.747016
0.745842
0.745842
0.747016
0.74935
0.752761
0.757064
0.761946
0.766981
0.771695
0.775666
0.778611
0.780422
0.781147
0.780944
0.780026
0.778614
0.776903
0.775054
0.773194
0.771417
0.769793
0.768374
0.767196
0.766285
0.765658
0.765327
0.764027
0.764371
0.765021
0.765968
0.767196
0.768682
0.770391
0.772277
0.774273
0.776289
0.778204
0.779864
0.781075
0.781617
0.781272
0.779867
0.777332
0.77375
0.769378
0.764621
0.759948
0.755793
0.752481
0.750206
0.749062
0.749062
0.750206
0.752481
0.755793
0.759948
0.764621
0.769378
0.77375
0.777332
0.779867
0.781272
0.781617
0.781075
0.779864
0.778204
0.776289
0.774273
0.772277
0.770391
0.768682
0.767196
0.765968
0.765021
0.764371
0.764027
0.763029
0.763381
0.764048
0.765021
0.766285
0.767819
0.769591
0.771556
0.773652
0.775791
0.777859
0.779702
0.781132
0.78193
0.781873
0.780778
0.778559
0.77528
0.771178
0.766643
0.76214
0.758107
0.754876
0.752651
0.751531
0.751531
0.752651
0.754876
0.758107
0.76214
0.766643
0.771178
0.77528
0.778559
0.780778
0.781873
0.78193
0.781132
0.779702
0.777859
0.775791
0.773652
0.771556
0.769591
0.767819
0.766285
0.765021
0.764048
0.763381
0.763029
0.762346
0.762703
0.763381
0.764371
0.765658
0.767224
0.769037
0.771054
0.773216
0.775437
0.777606
0.779571
0.781148
0.782118
0.782254
0.781368
0.779365
0.776293
0.772378
0.767998
0.763615
0.759667
0.756493
0.754304
0.753201
0.753201
0.754304
0.756493
0.759667
0.763615
0.767998
0.772378
0.776293
0.779365
0.781368
0.782254
0.782118
0.781148
0.779571
0.777606
0.775437
0.773216
0.771054
0.769037
0.767224
0.765658
0.764371
0.763381
0.762703
0.762346
0.761985
0.762346
0.763029
0.764027
0.765327
0.766908
0.768742
0.770786
0.772981
0.775244
0.777464
0.779492
0.781143
0.782199
0.782433
0.781654
0.779761
0.776795
0.772976
0.768676
0.764355
0.760451
0.757308
0.755137
0.754043
0.754043
0.755137
0.757308
0.760451
0.764355
0.768676
0.772976
0.776795
0.779761
0.781654
0.782433
0.782199
0.781143
0.779492
0.777464
0.775244
0.772981
0.770786
0.768742
0.766908
0.765327
0.764027
0.763029
0.762346
0.761985
SCALARS HU float 1
LOOKUP_TABLE default
0.00903137
0.0269908
0.0448792
0.0626305
0.0801619
0.0973682
0.11411
0.130203
0.145401
0.159382
0.171726
0.181905
0.189277
0.193119
0.192708
0.187479
0.177202
0.16213
0.143074
0.121285
0.0981817
0.0749988
0.0525261
0.0310202
0.0102759
-0.0102759
-0.0310202
-0.0525261
-0.0749988
-0.0981817
-0.121285
-0.143074
-0.16213
-0.177202
-0.187479
-0.192708
-0.193119
-0.189277
-0.181905
-0.171726
-0.159382
-0.145401
-0.130203
-0.11411
-0.0973682
-0.0801619
-0.0626305
-0.0448792
-0.0269908
-0.00903137
0.00900702
0.0269188
0.0447606
0.0624668
0.0799553
0.0971204
0.113822
0.129875
0.145032
0.158968
0.171262
0.181381
0.188683
0.192446
0.19195
0.18664
0.176299
0.161198
0.142158
0.120438
0.0974498
0.0744143
0.0521063
0.030769
0.0101921
-0.0101921
-0.030769
-0.0521063
-0.0744143
-0.0974498
-0.120438
-0.142158
-0.161198
-0.176299
-0.18664
-0.19195
-0.192446
-0.188683
-0.181381
-0.171262
-0.158968
-0.145032
-0.129875
-0.113822
-0.0971204
-0.0799553
-0.0624668
-0.0447606
-0.0269188
-0.00900702
0.00895855
0.0267748
0.0445235
0.0621393
0.0795412
0.0966227
0.113243
0.129215
0.144287
0.15813
0.170318
0.180313
0.187472
0.19107
0.1904
0.184927
0.174459
0.159301
0.140299
0.118722
0.0959681
0.0732327
0.0512568
0.0302608
0.0100225
-0.0100225
-0.0302608
-0.0512568
-0.0732327
-0.0959681
-0.118722
-0.140299
-0.159301
-0.174459
-0.184927
-0.1904
-0.19107
-0.187472
-0.180313
-0.170318
-0.15813
-0.144287
-0.129215
-0.113243
-0.0966227
-0.0795412
-0.0621393
-0.0445235
-0.0267748
-0.00895855
0.00888664
0.026562
0.0441719
0.0616532
0.0789249
0.0958801
0.112376
0.128221
0.143159
0.156855
0.168874
0.178673
0.185604
0.188945
0.188004
0.18228
0.171623
0.156384
0.137449
0.116096
0.0937062
0.0714301
0.049962
0.0294857
0.00976376
-0.00976376
-0.0294857
-0.049962
-0.0714301
-0.0937062
-0.116096
-0.137449
-0.156384
-0.171623
-0.18228
-0.188004
-0.188945
-0.185604
-0.178673
-0.168874
-0.156855
-0.143159
-0.128221
-0.112376
-0.0958801
-0.0789249
-0.0616532
-0.0441719
-0.026562
-0.00888664
0.00879307
0.0262835
0.0437117
0.0610152
0.0781132
0.0948977
0.111222
0.12689
0.141639
0.155124
0.166901
0.176419
0.183024
0.186002
0.184686
0.178619
0.167711
0.152376
0.133547
0.112515
0.0906295
0.0689814
0.0482032
0.0284328
0.00941226
-0.00941226
-0.0284328
-0.0482032
-0.0689814
-0.0906295
-0.112515
-0.133547
-0.152376
-0.167711
-0.178619
-0.184686
-0.186002
-0.183024
-0.176419
-0.166901
-0.155124
-0.141639
-0.12689
-0.111222
-0.0948977
-0.0781132
-0.0610152
-0.0437117
-0.0262835
-0.00879307
0.00867871
0.0259441
0.0431491
0.0602324
0.0771131
0.09368
0.109783
0.125217
0.139712
0.152911
0.164359
0.173494
0.179661
0.182157
0.180352
0.173848
0.162634
0.147202
0.128538
0.107939
0.0867124
0.0658727
0.0459733
0.0270979
0.00896654
-0.00896654
-0.0270979
-0.0459733
-0.0658727
-0.0867124
-0.107939
-0.128538
-0.147202
-0.162634
-0.173848
-0.180352
-0.182157
-0.179661
-0.173494
-0.164359
-0.152911
-0.139712
-0.125217
-0.109783
-0.09368
-0.0771131
-0.0602324
-0.0431491
-0.0259441
-0.00867871
0.00854569
0.0255472
0.0424894
0.0593109
0.0759283
0.0922278
0.108052
0.123187
0.137352
0.150176
0.16119
0.169826
0.175426
0.177308
0.174896
0.167869
0.156309
0.1408
0.122385
0.102357
0.0819599
0.0621129
0.04328
0.0254863
0.00842855
-0.00842855
-0.0254863
-0.04328
-0.0621129
-0.0819599
-0.102357
-0.122385
-0.1408
-0.156309
-0.167869
-0.174896
-0.177308
-0.175426
-0.169826
-0.16119
-0.150176
-0.137352
-0.123187
-0.108052
-0.0922278
-0.0759283
-0.0593109
-0.0424894
-0.0255472
-0.00854569
0.00839404
0.0250959
0.041736
0.0582525
0.074559
0.0905351
0.106015
0.120776
0.134519
0.146863
0.157324
0.165325
0.170215
0.171348
0.168216
0.160593
0.148675
0.133146
0.115099
0.095803
0.0764159
0.0577457
0.0401588
0.0236201
0.00780581
-0.00780581
-0.0236201
-0.0401588
-0.0577457
-0.0764159
-0.095803
-0.115099
-0.133146
-0.148675
-0.160593
-0.168216
-0.171348
-0.170215
-0.165325
-0.157324
-0.146863
-0.134519
-0.120776
-0.106015
-0.0905351
-0.074559
-0.0582525
-0.041736
-0.0250959
-0.00839404
0.00822525
0.0245899
0.0408886
0.0570547
0.0729966
0.0885861
0.103647
0.117943
0.131161
0.142901
0.15267
0.159886
0.163917
0.164167
0.16022
0.151962
0.13972
0.124276
0.106752
0.0883708
0.0701784
0.052859
0.0366772
0.0215416
0.00711279
-0.00711279
-0.0215416
-0.0366772
-0.052859
-0.0701784
-0.0883708
-0.106752
-0.124276
-0.13972
-0.151962
-0.16022
-0.164167
-0.163917
-0.159886
-0.15267
-0.142901
-0.131161
-0.117943
-0.103647
-0.0885861
-0.0729966
-0.0570547
-0.0408886
-0.0245899
-0.00822525
0.00803727
0.0240273
0.0399413
0.0557068
0.0712237
0.0863538
0.100908
0.114634
0.127202
0.138201
0.147125
0.153399
0.156423
0.155678
0.150853
0.141979
0.129507
0.114304
0.0974957
0.0802238
0.0634042
0.0475853
0.0329351
0.0193122
0.00637038
-0.00637038
-0.0193122
-0.0329351
-0.0475853
-0.0634042
-0.0802238
-0.0974957
-0.114304
-0.129507
-0.141979
-0.150853
-0.155678
-0.156423
-0.153399
-0.147125
-0.138201
-0.127202
-0.114634
-0.100908
-0.0863538
-0.0712237
-0.0557068
-0.0399413
-0.0240273
-0.00803727
0.00782932
0.0234013
0.0388821
0.0541889
0.0692108
0.083796
0.0977406
0.110776
0.122558
0.13266
0.14058
0.145759
0.147648
0.145835
0.14014
0.130732
0.118189
0.103435
0.0875602
0.0715933
0.0562997
0.0420944
0.0290561
0.0170078
0.00560411
-0.00560411
-0.0170078
-0.0290561
-0.0420944
-0.0562997
-0.0715933
-0.0875602
-0.103435
-0.118189
-0.130732
-0.14014
-0.145835
-0.147648
-0.145759
-0.14058
-0.13266
-0.122558
-0.110776
-0.0977406
-0.083796
-0.0692108
-0.0541889
-0.0388821
-0.0234013
-0.00782932
0.00759702
0.0227014
0.0376919
0.0524724
0.0669168
0.0808582
0.0940757
0.106285
0.11713
0.126179
0.132936
0.136885
0.137567
0.134682
0.128193
0.118416
0.106027
0.0919677
0.0772507
0.06276
0.0491047
0.036574
0.0251756
0.0147087
0.0048412
-0.0048412
-0.0147087
-0.0251756
-0.036574
-0.0491047
-0.06276
-0.0772507
-0.0919677
-0.106027
-0.118416
-0.128193
-0.134682
-0.137567
-0.136885
-0.132936
-0.126179
-0.11713
-0.106285
-0.0940757
-0.0808582
-0.0669168
-0.0524724
-0.0376919
-0.0227014
-0.00759702
0.00733625
0.0219125
0.0363452
0.0505199
0.0642924
0.0774773
0.0898382
0.101076
0.110829
0.118673
0.124144
0.126786
0.126249
0.122366
0.115251
0.105345
0.0933847
0.0802768
0.0669165
0.0540262
0.0420631
0.0312103
0.0214226
0.0124918
0.00410657
-0.00410657
-0.0124918
-0.0214226
-0.0312103
-0.0420631
-0.0540262
-0.0669165
-0.0802768
-0.0933847
-0.105345
-0.115251
-0.122366
-0.126249
-0.126786
-0.124144
-0.118673
-0.110829
-0.101076
-0.0898382
-0.0774773
-0.0642924
-0.0505199
-0.0363452
-0.0219125
-0.00733625
0.00704071
0.0210184
0.0348143
0.0482914
0.0612856
0.0735928
0.084962
0.0950894
0.103615
0.110137
0.114241
0.115567
0.113887
0.109176
0.101684
0.0919436
0.0806985
0.0687715
0.0569115
0.0456783
0.0353956
0.0261643
0.0179067
0.0104199
0.00342113
-0.00342113
-0.0104199
-0.0179067
-0.0261643
-0.0353956
-0.0456783
-0.0569115
-0.0687715
-0.0806985
-0.0919436
-0.101684
-0.109176
-0.113887
-0.115567
-0.114241
-0.110137
-0.103615
-0.0950894
-0.084962
-0.0735928
-0.0612856