# vtk DataFile Version 2.0
HPC Tutorials: Michael Bader, Kaveh Rahnema, Oliver Meister
ASCII
DATASET RECTILINEAR_GRID
DIMENSIONS 51 51 1
X_COORDINATES 51 float
0
0.02
0.04
0.06
0.08
0.1
0.12
0.14
0.16
0.18
0.2
0.22
0.24
0.26
0.28
0.3
0.32
0.34
0.36
0.38
0.4
0.42
0.44
0.46
0.48
0.5
0.52
0.54
0.56
0.58
0.6
0.62
0.64
0.66
0.68
0.7
0.72
0.74
0.76
0.78
0.8
0.82
0.84
0.86
0.88
0.9
0.92
0.94
0.96
0.98
1
Y_COORDINATES 51 float
0
0.02
0.04
0.06
0.08
0.1
0.12
0.14
0.16
0.18
0.2
0.22
0.24
0.26
0.28
0.3
0.32
0.34
0.36
0.38
0.4
0.42
0.44
0.46
0.48
0.5
0.52
0.54
0.56
0.58
0.6
0.62
0.64
0.66
0.68
0.7
0.72
0.74
0.76
0.78
0.8
0.82
0.84
0.86
0.88
0.9
0.92
0.94
0.96
0.98
1
Z_COORDINATES 1 float
0
CELL_DATA 2500
SCALARS H float 1
LOOKUP_TABLE default
0.673606
0.673994
0.67477
0.675931
0.67748
0.679418
0.681756
0.684512
0.687712
0.691397
0.695616
0.700419
0.705847
0.711903
0.718535
0.725617
0.732908
0.740117
0.746912
0.753001
0.758166
0.76229
0.765342
0.76734
0.768326
0.768326
0.76734
0.765342
0.76229
0.758166
0.753001
0.746912
0.740117
0.732908
0.725617
0.718535
0.711903
0.705847
0.700419
0.695616
0.691397
0.687712
0.684512
0.681756
0.679418
0.67748
0.675931
0.67477
0.673994
0.673606
0.673994
0.674382
0.675155
0.676313
0.677856
0.679788
0.682119
0.684866
0.688056
0.691729
0.695935
0.700724
0.706136
0.712177
0.718795
0.725864
0.733148
0.740353
0.747151
0.753245
0.758419
0.762552
0.765611
0.767615
0.768604
0.768604
0.767615
0.765611
0.762552
0.758419
0.753245
0.747151
0.740353
0.733148
0.725864
0.718795
0.712177
0.706136
0.700724
0.695935
0.691729
0.688056
0.684866
0.682119
0.679788
0.677856
0.676313
0.675155
0.674382
0.673994
0.67477
0.675155
0.675923
0.677073
0.678606
0.680526
0.682842
0.68557
0.68874
0.692389
0.696568
0.701328
0.706709
0.712719
0.719306
0.726347
0.733616
0.740814
0.747615
0.75372
0.75891
0.763059
0.766133
0.768148
0.769143
0.769143
0.768148
0.766133
0.763059
0.75891
0.75372
0.747615
0.740814
0.733616
0.726347
0.719306
0.712719
0.706709
0.701328
0.696568
0.692389
0.68874
0.68557
0.682842
0.680526
0.678606
0.677073
0.675923
0.675155
0.67477
0.675931
0.676313
0.677073
0.678212
0.67973
0.681631
0.683923
0.686625
0.689763
0.693378
0.697517
0.702233
0.707566
0.713527
0.720069
0.727069
0.734313
0.741499
0.748304
0.754425
0.759638
0.763813
0.766909
0.768941
0.769943
0.769943
0.768941
0.766909
0.763813
0.759638
0.754425
0.748304
0.741499
0.734313
0.727069
0.720069
0.713527
0.707566
0.702233
0.697517
0.693378
0.689763
0.686625
0.683923
0.681631
0.67973
0.678212
0.677073
0.676313
0.675931
0.67748
0.677856
0.678606
0.67973
0.681228
0.683103
0.685365
0.688031
0.691128
0.694696
0.698782
0.703439
0.70871
0.714607
0.721088
0.728032
0.735241
0.742411
0.74922
0.755362
0.760606
0.764814
0.76794
0.769994
0.771009
0.771009
0.769994
0.76794
0.764814
0.760606
0.755362
0.74922
0.742411
0.735241
0.728032
0.721088
0.714607
0.70871
0.703439
0.698782
0.694696
0.691128
0.688031
0.685365
0.683103
0.681228
0.67973
0.678606
0.677856
0.67748
0.679418
0.679788
0.680526
0.681631
0.683103
0.684947
0.687171
0.689793
0.692839
0.696347
0.700368
0.704952
0.710145
0.715962
0.722367
0.729246
0.736401
0.743552
0.750364
0.756533
0.761815
0.766066
0.769231
0.771314
0.772343
0.772343
0.771314
0.769231
0.766066
0.761815
0.756533
0.750364
0.743552
0.736401
0.729246
0.722367
0.715962
0.710145
0.704952
0.700368
0.696347
0.692839
0.689793
0.687171
0.684947
0.683103
0.681631
0.680526
0.679788
0.679418
0.681756
0.682119
0.682842
0.683923
0.685365
0.687171
0.68935
0.691919
0.694903
0.698342
0.702284
0.706782
0.711881
0.717602
0.723915
0.730714
0.737807
0.744927
0.751744
0.757941
0.76327
0.767573
0.770785
0.772903
0.773951
0.773951
0.772903
0.770785
0.767573
0.76327
0.757941
0.751744
0.744927
0.737807
0.730714
0.723915
0.717602
0.711881
0.706782
0.702284
0.698342
0.694903
0.691919
0.68935
0.687171
0.685365
0.683923
0.682842
0.682119
0.681756
0.684512
0.684866
0.68557
0.686625
0.688031
0.689793
0.691919
0.694425
0.697338
0.700697
0.704547
0.708944
0.713934
0.719543
0.725746
0.73245
0.739471
0.746545
0.753365
0.759594
0.764976
0.769341
0.772609
0.774769
0.775839
0.775839
0.774769
0.772609
0.769341
0.764976
0.759594
0.753365
0.746545
0.739471
0.73245
0.725746
0.719543
0.713934
0.708944
0.704547
0.700697
0.697338
0.694425
0.691919
0.689793
0.688031
0.686625
0.68557
0.684866
0.684512
0.687712
0.688056
0.68874
0.689763
0.691128
0.692839
0.694903
0.697338
0.70017
0.703436
0.707182
0.711464
0.716329
0.721807
0.727883
0.734473
0.741407
0.748431
0.755234
0.7615
0.766941
0.771375
0.774708
0.776917
0.778014
0.778014
0.776917
0.774708
0.771375
0.766941
0.7615
0.755234
0.748431
0.741407
0.734473
0.727883
0.721807
0.716329
0.711464
0.707182
0.703436
0.70017
0.697338
0.694903
0.692839
0.691128
0.689763
0.68874
0.688056
0.687712
0.691397
0.691729
0.692389
0.693378
0.694696
0.696347
0.698342
0.700697
0.703436
0.706596
0.710225
0.714375
0.719099
0.724428
0.730356
0.736811
0.743639
0.750597
0.75738
0.763666
0.769173
0.773683
0.77709
0.779355
0.780483
0.780483
0.779355
0.77709
0.773683
0.769173
0.763666
0.75738
0.750597
0.743639
0.736811
0.730356
0.724428
0.719099
0.714375
0.710225
0.706596
0.703436
0.700697
0.698342
0.696347
0.694696
0.693378
0.692389
0.691729
0.691397
0.695616
0.695935
0.696568
0.697517
0.698782
0.700368
0.702284
0.704547
0.707182
0.710225
0.713721
0.717724
0.722286
0.727445
0.733203
0.7395
0.746197
0.753068
0.759817
0.76612
0.77168
0.776273
0.779761
0.782089
0.78325
0.78325
0.782089
0.779761
0.776273
0.77168
0.76612
0.759817
0.753068
0.746197
0.7395
0.733203
0.727445
0.722286
0.717724
0.713721
0.710225
0.707182
0.704547
0.702284
0.700368
0.698782
0.697517
0.696568
0.695935
0.695616
0.700419
0.700724
0.701328
0.702233
0.703439
0.704952
0.706782
0.708944
0.711464
0.714375
0.717724
0.721562
0.725944
0.73091
0.736471
0.742582
0.74912
0.755877
0.762568
0.768872
0.774482
0.779152
0.782724
0.78512
0.786318
0.786318
0.78512
0.782724
0.779152
0.774482
0.768872
0.762568
0.755877
0.74912
0.742582
0.736471
0.73091
0.725944
0.721562
0.717724
0.714375
0.711464
0.708944
0.706782
0.704952
0.703439
0.702233
0.701328
0.700724
0.700419
0.705847
0.706136
0.706709
0.707566
0.70871
0.710145
0.711881
0.713934
0.716329
0.719099
0.722286
0.725944
0.730125
0.734875
0.740213
0.746106
0.752452
0.75906
0.765663
0.771944
0.777587
0.782328
0.785981
0.788447
0.789685
0.789685
0.788447
0.785981
0.782328
0.777587
0.771944
0.765663
0.75906
0.752452
0.746106
0.740213
0.734875
0.730125
0.725944
0.722286
0.719099
0.716329
0.713934
0.711881
0.710145
0.70871
0.707566
0.706709
0.706136
0.705847
0.711903
0.712177
0.712719
0.713527
0.714607
0.715962
0.717602
0.719543
0.721807
0.724428
0.727445
0.73091
0.734875
0.739389
0.744476
0.75012
0.756236
0.762656
0.769132
0.775356
0.781007
0.785802
0.78953
0.792063
0.79334
0.79334
0.792063
0.78953
0.785802
0.781007
0.775356
0.769132
0.762656
0.756236
0.75012
0.744476
0.739389
0.734875
0.73091
0.727445
0.724428
0.721807
0.719543
0.717602
0.715962
0.714607
0.713527
0.712719
0.712177
0.711903
0.718535
0.718795
0.719306
0.720069
0.721088
0.722367
0.723915
0.725746
0.727883
0.730356
0.733203
0.736471
0.740213
0.744476
0.749294
0.754659
0.760508
0.766698
0.773001
0.779124
0.784748
0.789572
0.793359
0.795951
0.797266
0.797266
0.795951
0.793359
0.789572
0.784748
0.779124
0.773001
0.766698
0.760508
0.754659
0.749294
0.744476
0.740213
0.736471
0.733203
0.730356
0.727883
0.725746
0.723915
0.722367
0.721088
0.720069
0.719306
0.718795
0.718535
0.725617
0.725864
0.726347
0.727069
0.728032
0.729246
0.730714
0.73245
0.734473
0.736811
0.7395
0.742582
0.746106
0.75012
0.754659
0.759728
0.765281
0.771199
0.777282
0.783256
0.788807
0.793624
0.797446
0.800085
0.801433
0.801433
0.800085
0.797446
0.793624
0.788807
0.783256
0.777282
0.771199
0.765281
0.759728
0.754659
0.75012
0.746106
0.742582
0.7395
0.736811
0.734473
0.73245
0.730714
0.729246
0.728032
0.727069
0.726347
0.725864
0.725617
0.732908
0.733148
0.733616
0.734313
0.735241
0.736401
0.737807
0.739471
0.741407
0.743639
0.746197
0.74912
0.752452
0.756236
0.760508
0.765281
0.770524
0.776142
0.781962
0.787737
0.793165
0.797932
0.801756
0.804421
0.805793
0.805793
0.804421
0.801756
0.797932
0.793165
0.787737
0.781962
0.776142
0.770524
0.765281
0.760508
0.756236
0.752452
0.74912
0.746197
0.743639
0.741407
0.739471
0.737807
0.736401
0.735241
0.734313
0.733616
0.733148
0.732908
0.740117
0.740353
0.740814
0.741499
0.742411
0.743552
0.744927
0.746545
0.748431
0.750597
0.753068
0.755877
0.75906
0.762656
0.766698
0.771199
0.776142
0.781452
0.786984
0.792518
0.797775
0.802445
0.806232
0.808898
0.810283
0.810283
0.808898
0.806232
0.802445
0.797775
0.792518
0.786984
0.781452
0.776142
0.771199
0.766698
0.762656
0.75906
0.755877
0.753068
0.750597
0.748431
0.746545
0.744927
0.743552
0.742411
0.741499
0.740814
0.740353
0.740117
0.746912
0.747151
0.747615
0.748304
0.74922
0.750364
0.751744
0.753365
0.755234
0.75738
0.759817
0.762568
0.765663
0.769132
0.773001
0.777282
0.781962
0.786984
0.792225
0.797499
0.802548
0.807077
0.81079
0.813429
0.814813
0.814813
0.813429
0.81079
0.807077
0.802548
0.797499
0.792225
0.786984
0.781962
0.777282
0.773001
0.769132
0.765663
0.762568
0.759817
0.75738
0.755234
0.753365
0.751744
0.750364
0.74922
0.748304
0.747615
0.747151
0.746912
0.753001
0.753245
0.75372
0.754425
0.755362
0.756533
0.757941
0.759594
0.7615
0.763666
0.76612
0.768872
0.771944
0.775356
0.779124
0.783256
0.787737
0.792518
0.797499
0.802516
0.807343
0.811705
0.815312
0.817901
0.819271
0.819271
0.817901
0.815312
0.811705
0.807343
0.802516
0.797499
0.792518
0.787737
0.783256
0.779124
0.775356
0.771944
0.768872
0.76612
0.763666
0.7615
0.759594
0.757941
0.756533
0.755362
0.754425
0.75372
0.753245
0.753001
0.758166
0.758419
0.75891
0.759638
0.760606
0.761815
0.76327
0.764976
0.766941
0.769173
0.77168
0.774482
0.777587
0.781007
0.784748
0.788807
0.793165
0.797775
0.802548
0.807343
0.81196
0.816151
0.81964
0.822163
0.823513
0.823513
0.822163
0.81964
0.816151
0.81196
0.807343
0.802548
0.797775
0.793165
0.788807
0.784748
0.781007
0.777587
0.774482
0.77168
0.769173
0.766941
0.764976
0.76327
0.761815
0.760606
0.759638
0.75891
0.758419
0.758166
0.76229
0.762552
0.763059
0.763813
0.764814
0.766066
0.767573
0.769341
0.771375
0.773683
0.776273
0.779152
0.782328
0.785802
0.789572
0.793624
0.797932
0.802445
0.807077
0.811705
0.816151
0.820191
0.823567
0.826026
0.827354
0.827354
0.826026
0.823567
0.820191
0.816151
0.811705
0.807077
0.802445
0.797932
0.793624
0.789572
0.785802
0.782328
0.779152
0.776273
0.773683
0.771375
0.769341
0.767573
0.766066
0.764814
0.763813
0.763059
0.762552
0.76229
0.765342
0.765611
0.766133
0.766909
0.76794
0.769231
0.770785
0.772609
0.774708
0.77709
0.779761
0.782724
0.785981
0.78953
0.793359
0.797446
0.801756
0.806232
0.81079
0.815312
0.81964
0.823567
0.826858
0.829266
0.830577
0.830577
0.829266
0.826858
0.823567
0.81964
0.815312
0.81079
0.806232
0.801756
0.797446
0.793359
0.78953
0.785981
0.782724
0.779761
0.77709
0.774708
0.772609
0.770785
0.769231
0.76794
0.766909
0.766133
0.765611
0.765342
0.76734
0.767615
0.768148
0.768941
0.769994
0.771314
0.772903
0.774769
0.776917
0.779355
0.782089
0.78512
0.788447
0.792063
0.795951
0.800085
0.804421
0.808898
0.813429
0.817901
0.822163
0.826026
0.829266
0.831645
0.832948
0.832948
0.831645
0.829266
0.826026
0.822163
0.817901
0.813429
0.808898
0.804421
0.800085
0.795951
0.792063
0.788447
0.78512
0.782089
0.779355
0.776917
0.774769
0.772903
0.771314
0.769994
0.768941
0.768148
0.767615
0.76734
0.768326
0.768604
0.769143
0.769943
0.771009
0.772343
0.773951
0.775839
0.778014
0.780483
0.78325
0.786318
0.789685
0.79334
0.797266
0.801433
0.805793
0.810283
0.814813
0.819271
0.823513
0.827354
0.830577
0.832948
0.834251
0.834251
0.832948
0.830577
0.827354
0.823513
0.819271
0.814813
0.810283
0.805793
0.801433
0.797266
0.79334
0.789685
0.786318
0.78325
0.780483
0.778014
0.775839
0.773951
0.772343
0.771009
0.769943
0.769143
0.768604
0.768326
0.768326
0.768604
0.769143
0.769943
0.771009
0.772343
0.773951
0.775839
0.778014
0.780483
0.78325
0.786318
0.789685
0.79334
0.797266
0.801433
0.805793
0.810283
0.814813
0.819271
0.823513
0.827354
0.830577
0.832948
0.834251
0.834251
0.832948
0.830577
0.827354
0.823513
0.819271
0.814813
0.810283
0.805793
0.801433
0.797266
0.79334
0.789685
0.786318
0.78325
0.780483
0.778014
0.775839
0.773951
0.772343
0.771009
0.769943
0.769143
0.768604
0.768326
0.76734
0.767615
0.768148
0.768941
0.769994
0.771314
0.772903
0.774769
0.776917
0.779355
0.782089
0.78512
0.788447
0.792063
0.795951
0.800085
0.804421
0.808898
0.813429
0.817901
0.822163
0.826026
0.829266
0.831645
0.832948
0.832948
0.831645
0.829266
0.826026
0.822163
0.817901
0.813429
0.808898
0.804421
0.800085
0.795951
0.792063
0.788447
0.78512
0.782089
0.779355
0.776917
0.774769
0.772903
0.771314
0.769994
0.768941
0.768148
0.767615
0.76734
0.765342
0.765611
0.766133
0.766909
0.76794
0.769231
0.770785
0.772609
0.774708
0.77709
0.779761
0.782724
0.785981
0.78953
0.793359
0.797446
0.801756
0.806232
0.81079
0.815312
0.81964
0.823567
0.826858
0.829266
0.830577
0.830577
0.829266
0.826858
0.823567
0.81964
0.815312
0.81079
0.806232
0.801756
0.797446
0.793359
0.78953
0.785981
0.782724
0.779761
0.77709
0.774708
0.772609
0.770785
0.769231
0.76794
0.766909
0.766133
0.765611
0.765342
0.76229
0.762552
0.763059
0.763813
0.764814
0.766066
0.767573
0.769341
0.771375
0.773683
0.776273
0.779152
0.782328
0.785802
0.789572
0.793624
0.797932
0.802445
0.807077
0.811705
0.816151
0.820191
0.823567
0.826026
0.827354
0.827354
0.826026
0.823567
0.820191
0.816151
0.811705
0.807077
0.802445
0.797932
0.793624
0.789572
0.785802
0.782328
0.779152
0.776273
0.773683
0.771375
0.769341
0.767573
0.766066
0.764814
0.763813
0.763059
0.762552
0.76229
0.758166
0.758419
0.75891
0.759638
0.760606
0.761815
0.76327
0.764976
0.766941
0.769173
0.77168
0.774482
0.777587
0.781007
0.784748
0.788807
0.793165
0.797775
0.802548
0.807343
0.81196
0.816151
0.81964
0.822163
0.823513
0.823513
0.822163
0.81964
0.816151
0.81196
0.807343
0.802548
0.797775
0.793165
0.788807
0.784748
0.781007
0.777587
0.774482
0.77168
0.769173
0.766941
0.764976
0.76327
0.761815
0.760606
0.759638
0.75891
0.758419
0.758166
0.753001
0.753245
0.75372
0.754425
0.755362
0.756533
0.757941
0.759594
0.7615
0.763666
0.76612
0.768872
0.771944
0.775356
0.779124
0.783256
0.787737
0.792518
0.797499
0.802516
0.807343
0.811705
0.815312
0.817901
0.819271
0.819271
0.817901
0.815312
0.811705
0.807343
0.802516
0.797499
0.792518
0.787737
0.783256
0.779124
0.775356
0.771944
0.768872
0.76612
0.763666
0.7615
0.759594
0.757941
0.756533
0.755362
0.754425
0.75372
0.753245
0.753001
0.746912
0.747151
0.747615
0.748304
0.74922
0.750364
0.751744
0.753365
0.755234
0.75738
0.759817
0.762568
0.765663
0.769132
0.773001
0.777282
0.781962
0.786984
0.792225
0.797499
0.802548
0.807077
0.81079
0.813429
0.814813
0.814813
0.813429
0.81079
0.807077
0.802548
0.797499
0.792225
0.786984
0.781962
0.777282
0.773001
0.769132
0.765663
0.762568
0.759817
0.75738
0.755234
0.753365
0.751744
0.750364
0.74922
0.748304
0.747615
0.747151
0.746912
0.740117
0.740353
0.740814
0.741499
0.742411
0.743552
0.744927
0.746545
0.748431
0.750597
0.753068
0.755877
0.75906
0.762656
0.766698
0.771199
0.776142
0.781452
0.786984
0.792518
0.797775
0.802445
0.806232
0.808898
0.810283
0.810283
0.808898
0.806232
0.802445
0.797775
0.792518
0.786984
0.781452
0.776142
0.771199
0.766698
0.762656
0.75906
0.755877
0.753068
0.750597
0.748431
0.746545
0.744927
0.743552
0.742411
0.741499
0.740814
0.740353
0.740117
0.732908
0.733148
0.733616
0.734313
0.735241
0.736401
0.737807
0.739471
0.741407
0.743639
0.746197
0.74912
0.752452
0.756236
0.760508
0.765281
0.770524
0.776142
0.781962
0.787737
0.793165
0.797932
0.801756
0.804421
0.805793
0.805793
0.804421
0.801756
0.797932
0.793165
0.787737
0.781962
0.776142
0.770524
0.765281
0.760508
0.756236
0.752452
0.74912
0.746197
0.743639
0.741407
0.739471
0.737807
0.736401
0.735241
0.734313
0.733616
0.733148
0.732908
0.725617
0.725864
0.726347
0.727069
0.728032
0.729246
0.730714
0.73245
0.734473
0.736811
0.7395
0.742582
0.746106
0.75012
0.754659
0.759728
0.765281
0.771199
0.777282
0.783256
0.788807
0.793624
0.797446
0.800085
0.801433
0.801433
0.800085
0.797446
0.793624
0.788807
0.783256
0.777282
0.771199
0.765281
0.759728
0.754659
0.75012
0.746106
0.742582
0.7395
0.736811
0.734473
0.73245
0.730714
0.729246
0.728032
0.727069
0.726347
0.725864
0.725617
0.718535
0.718795
0.719306
0.720069
0.721088
0.722367
0.723915
0.725746
0.727883
0.730356
0.733203
0.736471
0.740213
0.744476
0.749294
0.754659
0.760508
0.766698
0.773001
0.779124
0.784748
0.789572
0.793359
0.795951
0.797266
0.797266
0.795951
0.793359
0.789572
0.784748
0.779124
0.773001
0.766698
0.760508
0.754659
0.749294
0.744476
0.740213
0.736471
0.733203
0.730356
0.727883
0.725746
0.723915
0.722367
0.721088
0.720069
0.719306
0.718795
0.718535
0.711903
0.712177
0.712719
0.713527
0.714607
0.715962
0.717602
0.719543
0.721807
0.724428
0.727445
0.73091
0.734875
0.739389
0.744476
0.75012
0.756236
0.762656
0.769132
0.775356
0.781007
0.785802
0.78953
0.792063
0.79334
0.79334
0.792063
0.78953
0.785802
0.781007
0.775356
0.769132
0.762656
0.756236
0.75012
0.744476
0.739389
0.734875
0.73091
0.727445
0.724428
0.721807
0.719543
0.717602
0.715962
0.714607
0.713527
0.712719
0.712177
0.711903
0.705847
0.706136
0.706709
0.707566
0.70871
0.710145
0.711881
0.713934
0.716329
0.719099
0.722286
0.725944
0.730125
0.734875
0.740213
0.746106
0.752452
0.75906
0.765663
0.771944
0.777587
0.782328
0.785981
0.788447
0.789685
0.789685
0.788447
0.785981
0.782328
0.777587
0.771944
0.765663
0.75906
0.752452
0.746106
0.740213
0.734875
0.730125
0.725944
0.722286
0.719099
0.716329
0.713934
0.711881
0.710145
0.70871
0.707566
0.706709
0.706136
0.705847
0.700419
0.700724
0.701328
0.702233
0.703439
0.704952
0.706782
0.708944
0.711464
0.714375
0.717724
0.721562
0.725944
0.73091
0.736471
0.742582
0.74912
0.755877
0.762568
0.768872
0.774482
0.779152
0.782724
0.78512
0.786318
0.786318
0.78512
0.782724
0.779152
0.774482
0.768872
0.762568
0.755877
0.74912
0.742582
0.736471
0.73091
0.725944
0.721562
0.717724
0.714375
0.711464
0.708944
0.706782
0.704952
0.703439
0.702233
0.701328
0.700724
0.700419
0.695616
0.695935
0.696568
0.697517
0.698782
0.700368
0.702284
0.704547
0.707182
0.710225
0.713721
0.717724
0.722286
0.727445
0.733203
0.7395
0.746197
0.753068
0.759817
0.76612
0.77168
0.776273
0.779761
0.782089
0.78325
0.78325
0.782089
0.779761
0.776273
0.77168
0.76612
0.759817
0.753068
0.746197
0.7395
0.733203
0.727445
0.722286
0.717724
0.713721
0.710225
0.707182
0.704547
0.702284
0.700368
0.698782
0.697517
0.696568
0.695935
0.695616
0.691397
0.691729
0.692389
0.693378
0.694696
0.696347
0.698342
0.700697
0.703436
0.706596
0.710225
0.714375
0.719099
0.724428
0.730356
0.736811
0.743639
0.750597
0.75738
0.763666
0.769173
0.773683
0.77709
0.779355
0.780483
0.780483
0.779355
0.77709
0.773683
0.769173
0.763666
0.75738
0.750597
0.743639
0.736811
0.730356
0.724428
0.719099
0.714375
0.710225
0.706596
0.703436
0.700697
0.698342
0.696347
0.694696
0.693378
0.692389
0.691729
0.691397
0.687712
0.688056
0.68874
0.689763
0.691128
0.692839
0.694903
0.697338
0.70017
0.703436
0.707182
0.711464
0.716329
0.721807
0.727883
0.734473
0.741407
0.748431
0.755234
0.7615
0.766941
0.771375
0.774708
0.776917
0.778014
0.778014
0.776917
0.774708
0.771375
0.766941
0.7615
0.755234
0.748431
0.741407
0.734473
0.727883
0.721807
0.716329
0.711464
0.707182
0.703436
0.70017
0.697338
0.694903
0.692839
0.691128
0.689763
0.68874
0.688056
0.687712
0.684512
0.684866
0.68557
0.686625
0.688031
0.689793
0.691919
0.694425
0.697338
0.700697
0.704547
0.708944
0.713934
0.719543
0.725746
0.73245
0.739471
0.746545
0.753365
0.759594
0.764976
0.769341
0.772609
0.774769
0.775839
0.775839
0.774769
0.772609
0.769341
0.764976
0.759594
0.753365
0.746545
0.739471
0.73245
0.725746
0.719543
0.713934
0.708944
0.704547
0.700697
0.697338
0.694425
0.691919
0.689793
0.688031
0.686625
0.68557
0.684866
0.684512
0.681756
0.682119
0.682842
0.683923
0.685365
0.687171
0.68935
0.691919
0.694903
0.698342
0.702284
0.706782
0.711881
0.717602
0.723915
0.730714
0.737807
0.744927
0.751744
0.757941
0.76327
0.767573
0.770785
0.772903
0.773951
0.773951
0.772903
0.770785
0.767573
0.76327
0.757941
0.751744
0.744927
0.737807
0.730714
0.723915
0.717602
0.711881
0.706782
0.702284
0.698342
0.694903
0.691919
0.68935
0.687171
0.685365
0.683923
0.682842
0.682119
0.681756
0.679418
0.679788
0.680526
0.681631
0.683103
0.684947
0.687171
0.689793
0.692839
0.696347
0.700368
0.704952
0.710145
0.715962
0.722367
0.729246
0.736401
0.743552
0.750364
0.756533
0.761815
0.766066
0.769231
0.771314
0.772343
0.772343
0.771314
0.769231
0.766066
0.761815
0.756533
0.750364
0.743552
0.736401
0.729246
0.722367
0.715962
0.710145
0.704952
0.700368
0.696347
0.692839
0.689793
0.687171
0.684947
0.683103
0.681631
0.680526
0.679788
0.679418
0.67748
0.677856
0.678606
0.67973
0.681228
0.683103
0.685365
0.688031
0.691128
0.694696
0.698782
0.703439
0.70871
0.714607
0.721088
0.728032
0.735241
0.742411
0.74922
0.755362
0.760606
0.764814
0.76794
0.769994
0.771009
0.771009
0.769994
0.76794
0.764814
0.760606
0.755362
0.74922
0.742411
0.735241
0.728032
0.721088
0.714607
0.70871
0.703439
0.698782
0.694696
0.691128
0.688031
0.685365
0.683103
0.681228
0.67973
0.678606
0.677856
0.67748
0.675931
0.676313
0.677073
0.678212
0.67973
0.681631
0.683923
0.686625
0.689763
0.693378
0.697517
0.702233
0.707566
0.713527
0.720069
0.727069
0.734313
0.741499
0.748304
0.754425
0.759638
0.763813
0.766909
0.768941
0.769943
0.769943
0.768941
0.766909
0.763813
0.759638
0.754425
0.748304
0.741499
0.734313
0.727069
0.720069
0.713527
0.707566
0.702233
0.697517
0.693378
0.689763
0.686625
0.683923
0.681631
0.67973
0.678212
0.677073
0.676313
0.675931
0.67477
0.675155
0.675923
0.677073
0.678606
0.680526
0.682842
0.68557
0.68874
0.692389
0.696568
0.701328
0.706709
0.712719
0.719306
0.726347
0.733616
0.740814
0.747615
0.75372
0.75891
0.763059
0.766133
0.768148
0.769143
0.769143
0.768148
0.766133
0.763059
0.75891
0.75372
0.747615
0.740814
0.733616
0.726347
0.719306
0.712719
0.706709
0.701328
0.696568
0.692389
0.68874
0.68557
0.682842
0.680526
0.678606
0.677073
0.675923
0.675155
0.67477
0.673994
0.674382
0.675155
0.676313
0.677856
0.679788
0.682119
0.684866
0.688056
0.691729
0.695935
0.700724
0.706136
0.712177
0.718795
0.725864
0.733148
0.740353
0.747151
0.753245
0.758419
0.762552
0.765611
0.767615
0.768604
0.768604
0.767615
0.765611
0.762552
0.758419
0.753245
0.747151
0.740353
0.733148
0.725864
0.718795
0.712177
0.706136
0.700724
0.695935
0.691729
0.688056
0.684866
0.682119
0.679788
0.677856
0.676313
0.675155
0.674382
0.673994
0.673606
0.673994
0.67477
0.675931
0.67748
0.679418
0.681756
0.684512
0.687712
0.691397
0.695616
0.700419
0.705847
0.711903
0.718535
0.725617
0.732908
0.740117
0.746912
0.753001
0.758166
0.76229
0.765342
0.76734
0.768326
0.768326
0.76734
0.765342
0.76229
0.758166
0.753001
0.746912
0.740117
0.732908
0.725617
0.718535
0.711903
0.705847
0.700419
0.695616
0.691397
0.687712
0.684512
0.681756
0.679418
0.67748
0.675931
0.67477
0.673994
0.673606
SCALARS HU float 1
LOOKUP_TABLE default
0.000953893
0.00284166
0.00467359
0.00640853
0.00800264
0.00940584
0.0105566
0.0113756
0.0117577
0.0115698
0.0106525
0.00883671
0.00597672
0.00200463
-0.00300307
-0.00877257
-0.0147691
-0.020273
-0.0244889
-0.0267255
-0.026547
-0.023853
-0.01887
-0.0120876
-0.00416315
0.00416315
0.0120876
0.01887
0.023853
0.026547
0.0267255
0.0244889
0.020273
0.0147691
0.00877257
0.00300307
-0.00200463
-0.00597672
-0.00883671
-0.0106525
-0.0115698
-0.0117577
-0.0113756
-0.0105566
-0.00940584
-0.00800264
-0.00640853
-0.00467359
-0.00284166
-0.000953893
0.000988471
0.00294532
0.00484518
0.00664638
0.00830433
0.00976814
0.0109759
0.0118469
0.0122764
0.0121307
0.0112504
0.00946646
0.00663235
0.00267899
-0.0023194
-0.00809137
-0.0141086
-0.0196516
-0.0239245
-0.0262345
-0.0261397
-0.0235352
-0.0186438
-0.0119522
-0.00411799
0.00411799
0.0119522
0.0186438
0.0235352
0.0261397
0.0262345
0.0239245
0.0196516
0.0141086
0.00809137
0.0023194
-0.00267899
-0.00663235
-0.00946646
-0.0112504
-0.0121307
-0.0122764
-0.0118469
-0.0109759
-0.00976814
-0.00830433
-0.00664638
-0.00484518
-0.00294532
-0.000988471
0.00105769
0.00315184
0.00518734
0.00712082
0.0089063
0.0104915
0.0118127
0.0127885
0.0133131
0.0132522
0.0124467
0.0107269
0.00794549
0.00403028
-0.000948823
-0.00672386
-0.0127822
-0.0184019
-0.0227885
-0.0252451
-0.0253179
-0.0228936
-0.0181868
-0.0116788
-0.0040269
0.0040269
0.0116788
0.0181868
0.0228936
0.0253179
0.0252451
0.0227885
0.0184019
0.0127822
0.00672386
0.000948823
-0.00403028
-0.00794549
-0.0107269
-0.0124467
-0.0132522
-0.0133131
-0.0127885
-0.0118127
-0.0104915
-0.0089063
-0.00712082
-0.00518734
-0.00315184
-0.00105769
0.00116073
0.00346013
0.00569785
0.007829
0.00980531
0.0115723
0.0130641
0.0141977
0.0148656
0.0149337
0.0142418
0.01262
0.00991944
0.00606374
0.00111566
-0.00466238
-0.010778
-0.0165109
-0.021068
-0.0237432
-0.0240693
-0.0219171
-0.0174907
-0.0112623
-0.00388789
0.00388789
0.0112623
0.0174907
0.0219171
0.0240693
0.0237432
0.021068
0.0165109
0.010778
0.00466238
-0.00111566
-0.00606374
-0.00991944
-0.01262
-0.0142418
-0.0149337
-0.0148656
-0.0141977
-0.0130641
-0.0115723
-0.00980531
-0.007829
-0.00569785
-0.00346013
-0.00116073
0.0012971
0.00386757
0.00637319
0.0087663
0.0109961
0.013005
0.0147247
0.0160696
0.0169308
0.0171727
0.0166353
0.0151476
0.0125585
0.00878614
0.00388415
-0.0018959
-0.00807916
-0.0139599
-0.0187424
-0.0217083
-0.0223747
-0.0205898
-0.0165428
-0.010695
-0.00369891
0.00369891
0.010695
0.0165428
0.0205898
0.0223747
0.0217083
0.0187424
0.0139599
0.00807916
0.0018959
-0.00388415
-0.00878614
-0.0125585
-0.0151476
-0.0166353
-0.0171727
-0.0169308
-0.0160696
-0.0147247
-0.013005
-0.0109961
-0.0087663
-0.00637319
-0.00386757
-0.0012971
0.00146555
0.00437122
0.00720831
0.00992621
0.0124708
0.0147814
0.0167863
0.0183968
0.0195021
0.0199654
0.0196256
0.018311
0.0158671
0.0122057
0.00736808
0.00159001
-0.00466517
-0.0107252
-0.0157847
-0.0191128
-0.0202077
-0.0188907
-0.0153265
-0.00996616
-0.003456
0.003456
0.00996616
0.0153265
0.0188907
0.0202077
0.0191128
0.0157847
0.0107252
0.00466517
-0.00159001
-0.00736808
-0.0122057
-0.0158671
-0.018311
-0.0196256
-0.0199654
-0.0195021
-0.0183968
-0.0167863
-0.0147814
-0.0124708
-0.00992621
-0.00720831
-0.00437122
-0.00146555
0.00166486
0.00496708
0.00819673
0.0113
0.0142195
0.0168905
0.0192376
0.0211688
0.0225708
0.0233049
0.023209
0.0221096
0.0198488
0.0163301
0.0115807
0.0058161
-0.000519414
-0.00677476
-0.0121608
-0.0159249
-0.0175364
-0.0167896
-0.0138213
-0.0090628
-0.00315459
0.00315459
0.0090628
0.0138213
0.0167896
0.0175364
0.0159249
0.0121608
0.00677476
0.000519414
-0.0058161
-0.0115807
-0.0163301
-0.0198488
-0.0221096
-0.023209
-0.0233049
-0.0225708
-0.0211688
-0.0192376
-0.0168905
-0.0142195
-0.0113
-0.00819673
-0.00496708
-0.00166486
0.00189338
0.00565029
0.00933057
0.0128775
0.0162297
0.0193188
0.0220649
0.0243725
0.0261252
0.0271818
0.027379
0.026541
0.0245056
0.0211666
0.0165349
0.0108021
0.00438564
-0.00207998
-0.00783276
-0.0121013
-0.014323
-0.0142536
-0.0119996
-0.00796859
-0.00278936
0.00278936
0.00796859
0.0119996
0.0142536
0.014323
0.0121013
0.00783276
0.00207998
-0.00438564
-0.0108021
-0.0165349
-0.0211666
-0.0245056
-0.026541
-0.027379
-0.0271818
-0.0261252
-0.0243725
-0.0220649
-0.0193188
-0.0162297
-0.0128775
-0.00933057
-0.00565029
-0.00189338
0.00214919
0.00641549
0.0106014
0.0146471
0.0184877
0.0220506
0.0252521
0.0279921
0.0301506
0.0315841
0.0321268
0.0316006
0.0298376
0.0267213
0.0222433
0.0165681
0.0100811
0.00338821
-0.00275635
-0.00759545
-0.01052
-0.011243
-0.00982981
-0.00666308
-0.00235349
0.00235349
0.00666308
0.00982981
0.011243
0.01052
0.00759545
0.00275635
-0.00338821
-0.0100811
-0.0165681
-0.0222433
-0.0267213
-0.0298376
-0.0316006
-0.0321268
-0.0315841
-0.0301506
-0.0279921
-0.0252521
-0.0220506
-0.0184877
-0.0146471
-0.0106014
-0.00641549
-0.00214919
0.00243062
0.0072571
0.0120001
0.0165967
0.0209789
0.0250701
0.0287819
0.0320103
0.0346312
0.0364977
0.0374418
0.0372817
0.0358436
0.0329986
0.0287176
0.0231341
0.0165962
0.00967459
0.00310321
-0.00235412
-0.00607388
-0.00770851
-0.00727637
-0.00512237
-0.00183847
0.00183847
0.00512237
0.00727637
0.00770851
0.00607388
0.00235412
-0.00310321
-0.00967459
-0.0165962
-0.0231341
-0.0287176
-0.0329986
-0.0358436
-0.0372817
-0.0374418
-0.0364977
-0.0346312
-0.0320103
-0.0287819
-0.0250701
-0.0209789
-0.0165967
-0.0120001
-0.0072571
-0.00243062
0.00273566
0.00816973
0.0135178
0.0187145
0.0236889
0.0283605
0.0326369
0.0364095
0.0395499
0.0419079
0.0433118
0.0435762
0.0425202
0.0400015
0.0359681
0.0305192
0.02396
0.016819
0.00980169
0.00366916
-0.000926596
-0.00359575
-0.00429332
-0.00331923
-0.00123578
0.00123578
0.00331923
0.00429332
0.00359575
0.000926596
-0.00366916
-0.00980169
-0.016819
-0.02396
-0.0305192
-0.0359681
-0.0400015
-0.0425202
-0.0435762
-0.0433118
-0.0419079
-0.0395499
-0.0364095
-0.0326369
-0.0283605
-0.0236889
-0.0187145
-0.0135178
-0.00816973
-0.00273566
0.00306265
0.00914812
0.0151459
0.0209888
0.0266033
0.0319056
0.0367994
0.0411713
0.0448891
0.0477983
0.0497234
0.0504743
0.0498622
0.0477306
0.0440028
0.0387403
0.0322001
0.0248609
0.0173902
0.0105381
0.00497911
0.00115393
-0.000832644
-0.00122117
-0.000533251
0.000533251
0.00122117
0.000832644
-0.00115393
-0.00497911
-0.0105381
-0.0173902
-0.0248609
-0.0322001
-0.0387403
-0.0440028
-0.0477306
-0.0498622
-0.0504743
-0.0497234
-0.0477983
-0.0448891
-0.0411713
-0.0367994
-0.0319056
-0.0266033
-0.0209888
-0.0151459
-0.00914812
-0.00306265
0.00340959
0.0101865
0.0168748
0.0234065
0.0297061
0.0356869
0.0412489
0.0462749
0.0506279
0.0541491
0.0566589
0.0579614
0.0578597
0.0561818
0.0528245
0.0478092
0.0413397
0.0338361
0.0259175
0.0183128
0.0117111
0.00660184
0.00315868
0.00120714
0.000280906
-0.000280906
-0.00120714
-0.00315868
-0.00660184
-0.0117111
-0.0183128
-0.0259175
-0.0338361
-0.0413397
-0.0478092
-0.0528245
-0.0561818
-0.0578597
-0.0579614
-0.0566589
-0.0541491
-0.0506279
-0.0462749
-0.0412489
-0.0356869
-0.0297061
-0.0234065
-0.0168748
-0.0101865