# vtk DataFile Version 2.0
HPC Tutorials: Michael Bader, Kaveh Rahnema, Oliver Meister
ASCII
DATASET RECTILINEAR_GRID
DIMENSIONS 51 51 1
X_COORDINATES 51 float
0
0.02
0.04
0.06
0.08
0.1
0.12
0.14
0.16
0.18
0.2
0.22
0.24
0.26
0.28
0.3
0.32
0.34
0.36
0.38
0.4
0.42
0.44
0.46
0.48
0.5
0.52
0.54
0.56
0.58
0.6
0.62
0.64
0.66
0.68
0.7
0.72
0.74
0.76
0.78
0.8
0.82
0.84
0.86
0.88
0.9
0.92
0.94
0.96
0.98
1
Y_COORDINATES 51 float
0
0.02
0.04
0.06
0.08
0.1
0.12
0.14
0.16
0.18
0.2
0.22
0.24
0.26
0.28
0.3
0.32
0.34
0.36
0.38
0.4
0.42
0.44
0.46
0.48
0.5
0.52
0.54
0.56
0.58
0.6
0.62
0.64
0.66
0.68
0.7
0.72
0.74
0.76
0.78
0.8
0.82
0.84
0.86
0.88
0.9
0.92
0.94
0.96
0.98
1
Z_COORDINATES 1 float
0
CELL_DATA 2500
SCALARS H float 1
LOOKUP_TABLE default
0.732117
0.732474
0.733108
0.733855
0.734518
0.734917
0.734916
0.734441
0.733477
0.732061
0.730263
0.72817
0.725874
0.723462
0.721015
0.718601
0.716281
0.714106
0.712119
0.710356
0.708845
0.707609
0.706666
0.706028
0.705705
0.705705
0.706028
0.706666
0.707609
0.708845
0.710356
0.712119
0.714106
0.716281
0.718601
0.721015
0.723462
0.725874
0.72817
0.730263
0.732061
0.733477
0.734441
0.734916
0.734917
0.734518
0.733855
0.733108
0.732474
0.732117
0.732474
0.732839
0.733491
0.734263
0.73496
0.7354
0.735446
0.735022
0.734116
0.732761
0.731027
0.729002
0.726775
0.724435
0.722059
0.719717
0.717468
0.715362
0.713441
0.711738
0.71028
0.709089
0.708182
0.707569
0.707258
0.707258
0.707569
0.708182
0.709089
0.71028
0.711738
0.713441
0.715362
0.717468
0.719717
0.722059
0.724435
0.726775
0.729002
0.731027
0.732761
0.734116
0.735022
0.735446
0.7354
0.73496
0.734263
0.733491
0.732839
0.732474
0.733108
0.733491
0.734177
0.735
0.735763
0.736284
0.736423
0.736104
0.735311
0.734078
0.732474
0.730584
0.728498
0.726303
0.724074
0.721881
0.719779
0.717816
0.716031
0.714453
0.713107
0.712012
0.711179
0.710618
0.710334
0.710334
0.710618
0.711179
0.712012
0.713107
0.714453
0.716031
0.717816
0.719779
0.721881
0.724074
0.726303
0.728498
0.730584
0.732474
0.734078
0.735311
0.736104
0.736423
0.736284
0.735763
0.735
0.734177
0.733491
0.733108
0.733855
0.734263
0.735
0.735898
0.73676
0.7374
0.737678
0.737515
0.736893
0.735843
0.734434
0.73275
0.730879
0.728906
0.726907
0.724944
0.723073
0.721336
0.719767
0.718389
0.717223
0.716279
0.715566
0.715088
0.714847
0.714847
0.715088
0.715566
0.716279
0.717223
0.718389
0.719767
0.721336
0.723073
0.724944
0.726907
0.728906
0.730879
0.73275
0.734434
0.735843
0.736893
0.737515
0.737678
0.7374
0.73676
0.735898
0.735
0.734263
0.733855
0.734518
0.73496
0.735763
0.73676
0.737751
0.738548
0.739009
0.739052
0.738656
0.737851
0.736703
0.735295
0.733715
0.732044
0.730357
0.728713
0.727162
0.725739
0.72447
0.723374
0.722459
0.721729
0.721184
0.720822
0.72064
0.72064
0.720822
0.721184
0.721729
0.722459
0.723374
0.72447
0.725739
0.727162
0.728713
0.730357
0.732044
0.733715
0.735295
0.736703
0.737851
0.738656
0.739052
0.739009
0.738548
0.737751
0.73676
0.735763
0.73496
0.734518
0.734917
0.7354
0.736284
0.7374
0.738548
0.739538
0.740223
0.740519
0.740402
0.739899
0.739076
0.738012
0.736795
0.735505
0.734211
0.73297
0.731824
0.7308
0.729916
0.729177
0.728581
0.728121
0.727789
0.727573
0.727465
0.727465
0.727573
0.727789
0.728121
0.728581
0.729177
0.729916
0.7308
0.731824
0.73297
0.734211
0.735505
0.736795
0.738012
0.739076
0.739899
0.740402
0.740519
0.740223
0.739538
0.738548
0.7374
0.736284
0.7354
0.734917
0.734916
0.735446
0.736423
0.737678
0.739009
0.740223
0.741171
0.741763
0.741973
0.741826
0.741384
0.740727
0.739939
0.739098
0.73827
0.737504
0.736835
0.73628
0.735843
0.735518
0.735291
0.735142
0.735051
0.735001
0.734977
0.734977
0.735001
0.735051
0.735142
0.735291
0.735518
0.735843
0.73628
0.736835
0.737504
0.73827
0.739098
0.739939
0.740727
0.741384
0.741826
0.741973
0.741763
0.741171
0.740223
0.739009
0.737678
0.736423
0.735446
0.734916
0.734441
0.735022
0.736104
0.737515
0.739052
0.740519
0.741763
0.74269
0.743271
0.743527
0.743517
0.743319
0.743015
0.742679
0.742371
0.742131
0.741985
0.741938
0.741981
0.742094
0.742252
0.742423
0.742579
0.742697
0.742758
0.742758
0.742697
0.742579
0.742423
0.742252
0.742094
0.741981
0.741938
0.741985
0.742131
0.742371
0.742679
0.743015
0.743319
0.743517
0.743527
0.743271
0.74269
0.741763
0.740519
0.739052
0.737515
0.736104
0.735022
0.734441
0.733477
0.734116
0.735311
0.736893
0.738656
0.740402
0.741973
0.743271
0.744261
0.744961
0.745426
0.74573
0.745951
0.746156
0.746397
0.746707
0.747095
0.747556
0.748069
0.748603
0.74912
0.749586
0.749966
0.750233
0.750369
0.750369
0.750233
0.749966
0.749586
0.74912
0.748603
0.748069
0.747556
0.747095
0.746707
0.746397
0.746156
0.745951
0.74573
0.745426
0.744961
0.744261
0.743271
0.741973
0.740402
0.738656
0.736893
0.735311
0.734116
0.733477
0.732061
0.732761
0.734078
0.735843
0.737851
0.739899
0.741826
0.743527
0.744961
0.74614
0.747114
0.747951
0.748721
0.749483
0.750278
0.751124
0.752021
0.752949
0.75388
0.754773
0.75559
0.756292
0.756846
0.757228
0.75742
0.75742
0.757228
0.756846
0.756292
0.75559
0.754773
0.75388
0.752949
0.752021
0.751124
0.750278
0.749483
0.748721
0.747951
0.747114
0.74614
0.744961
0.743527
0.741826
0.739899
0.737851
0.735843
0.734078
0.732761
0.732061
0.730263
0.731027
0.732474
0.734434
0.736703
0.739076
0.741384
0.743517
0.745426
0.747114
0.748623
0.750011
0.751337
0.752648
0.75397
0.755308
0.756651
0.75797
0.759231
0.760394
0.761421
0.76228
0.762945
0.763396
0.763621
0.763621
0.763396
0.762945
0.76228
0.761421
0.760394
0.759231
0.75797
0.756651
0.755308
0.75397
0.752648
0.751337
0.750011
0.748623
0.747114
0.745426
0.743517
0.741384
0.739076
0.736703
0.734434
0.732474
0.731027
0.730263
0.72817
0.729002
0.730584
0.73275
0.735295
0.738012
0.740727
0.743319
0.74573
0.747951
0.750011
0.751954
0.753824
0.755652
0.757448
0.759206
0.760904
0.762512
0.763996
0.765322
0.766462
0.767395
0.768104
0.768578
0.768812
0.768812
0.768578
0.768104
0.767395
0.766462
0.765322
0.763996
0.762512
0.760904
0.759206
0.757448
0.755652
0.753824
0.751954
0.750011
0.747951
0.74573
0.743319
0.740727
0.738012
0.735295
0.73275
0.730584
0.729002
0.72817
0.725874
0.726775
0.728498
0.730879
0.733715
0.736795
0.739939
0.743015
0.745951
0.748721
0.751337
0.753824
0.756207
0.758497
0.760692
0.762777
0.764725
0.766509
0.768104
0.76949
0.770652
0.771582
0.772276
0.772735
0.772958
0.772958
0.772735
0.772276
0.771582
0.770652
0.76949
0.768104
0.766509
0.764725
0.762777
0.760692
0.758497
0.756207
0.753824
0.751337
0.748721
0.745951
0.743015
0.739939
0.736795
0.733715
0.730879
0.728498
0.726775
0.725874
0.723462
0.724435
0.726303
0.728906
0.732044
0.735505
0.739098
0.742679
0.746156
0.749483
0.752648
0.755652
0.758497
0.761179
0.763684
0.765991
0.76808
0.769933
0.77154
0.772896
0.774005
0.774872
0.775508
0.775921
0.776118
0.776118
0.775921
0.775508
0.774872
0.774005
0.772896
0.77154
0.769933
0.76808
0.765991
0.763684
0.761179
0.758497
0.755652
0.752648
0.749483
0.746156
0.742679
0.739098
0.735505
0.732044
0.728906
0.726303
0.724435
0.723462
0.721015
0.722059
0.724074
0.726907
0.730357
0.734211
0.73827
0.742371
0.746397
0.750278
0.75397
0.757448
0.760692
0.763684
0.766403
0.768832
0.770961
0.772791
0.774328
0.775588
0.776589
0.777354
0.777902
0.778251
0.778415
0.778415
0.778251
0.777902
0.777354
0.776589
0.775588
0.774328
0.772791
0.770961
0.768832
0.766403
0.763684
0.760692
0.757448
0.75397
0.750278
0.746397
0.742371
0.73827
0.734211
0.730357
0.726907
0.724074
0.722059
0.721015
0.718601
0.719717
0.721881
0.724944
0.728713
0.73297
0.737504
0.742131
0.746707
0.751124
0.755308
0.759206
0.762777
0.765991
0.768832
0.771292
0.77338
0.775114
0.776524
0.777643
0.778505
0.779145
0.779592
0.779869
0.779995
0.779995
0.779869
0.779592
0.779145
0.778505
0.777643
0.776524
0.775114
0.77338
0.771292
0.768832
0.765991
0.762777
0.759206
0.755308
0.751124
0.746707
0.742131
0.737504
0.73297
0.728713
0.724944
0.721881
0.719717
0.718601
0.716281
0.717468
0.719779
0.723073
0.727162
0.731824
0.736835
0.741985
0.747095
0.752021
0.756651
0.760904
0.764725
0.76808
0.770961
0.77338
0.775364
0.776956
0.778205
0.779161
0.779871
0.780379
0.780721
0.780926
0.781013
0.781013
0.780926
0.780721
0.780379
0.779871
0.779161
0.778205
0.776956
0.775364
0.77338
0.770961
0.76808
0.764725
0.760904
0.756651
0.752021
0.747095
0.741985
0.736835
0.731824
0.727162
0.723073
0.719779
0.717468
0.716281
0.714106
0.715362
0.717816
0.721336
0.725739
0.7308
0.73628
0.741938
0.747556
0.752949
0.75797
0.762512
0.766509
0.769933
0.772791
0.775114
0.776956
0.778381
0.779454
0.780242
0.7808
0.78118
0.781422
0.781558
0.78161
0.78161
0.781558
0.781422
0.78118
0.7808
0.780242
0.779454
0.778381
0.776956
0.775114
0.772791
0.769933
0.766509
0.762512
0.75797
0.752949
0.747556
0.741938
0.73628
0.7308
0.725739
0.721336
0.717816
0.715362
0.714106
0.712119
0.713441
0.716031
0.719767
0.72447
0.729916
0.735843
0.741981
0.748069
0.75388
0.759231
0.763996
0.768104
0.77154
0.774328
0.776524
0.778205
0.779454
0.780354
0.780979
0.781396
0.781658
0.78181
0.781884
0.781905
0.781905
0.781884
0.78181
0.781658
0.781396
0.780979
0.780354
0.779454
0.778205
0.776524
0.774328
0.77154
0.768104
0.763996
0.759231
0.75388
0.748069
0.741981
0.735843
0.729916
0.72447
0.719767
0.716031
0.713441
0.712119
0.710356
0.711738
0.714453
0.718389
0.723374
0.729177
0.735518
0.742094
0.748603
0.754773
0.760394
0.765322
0.76949
0.772896
0.775588
0.777643
0.779161
0.780242
0.780979
0.781458
0.781747
0.781906
0.78198
0.782002
0.781995
0.781995
0.782002
0.78198
0.781906
0.781747
0.781458
0.780979
0.780242
0.779161
0.777643
0.775588
0.772896
0.76949
0.765322
0.760394
0.754773
0.748603
0.742094
0.735518
0.729177
0.723374
0.718389
0.714453
0.711738
0.710356
0.708845
0.71028
0.713107
0.717223
0.722459
0.728581
0.735291
0.742252
0.74912
0.75559
0.761421
0.766462
0.770652
0.774005
0.776589
0.778505
0.779871
0.7808
0.781396
0.781747
0.78193
0.782002
0.78201
0.781988
0.781959
0.781959
0.781988
0.78201
0.782002
0.78193
0.781747
0.781396
0.7808
0.779871
0.778505
0.776589
0.774005
0.770652
0.766462
0.761421
0.75559
0.74912
0.742252
0.735291
0.728581
0.722459
0.717223
0.713107
0.71028
0.708845
0.707609
0.709089
0.712012
0.716279
0.721729
0.728121
0.735142
0.742423
0.749586
0.756292
0.76228
0.767395
0.771582
0.774872
0.777354
0.779145
0.780379
0.78118
0.781658
0.781906
0.782002
0.782005
0.781961
0.781904
0.781857
0.781857
0.781904
0.781961
0.782005
0.782002
0.781906
0.781658
0.78118
0.780379
0.779145
0.777354
0.774872
0.771582
0.767395
0.76228
0.756292
0.749586
0.742423
0.735142
0.728121
0.721729
0.716279
0.712012
0.709089
0.707609
0.706666
0.708182
0.711179
0.715566
0.721184
0.727789
0.735051
0.742579
0.749966
0.756846
0.762945
0.768104
0.772276
0.775508
0.777902
0.779592
0.780721
0.781422
0.78181
0.78198
0.78201
0.781961
0.781878
0.781796
0.781736
0.781736
0.781796
0.781878
0.781961
0.78201
0.78198
0.78181
0.781422
0.780721
0.779592
0.777902
0.775508
0.772276
0.768104
0.762945
0.756846
0.749966
0.742579
0.735051
0.727789
0.721184
0.715566
0.711179
0.708182
0.706666
0.706028
0.707569
0.710618
0.715088
0.720822
0.727573
0.735001
0.742697
0.750233
0.757228
0.763396
0.768578
0.772735
0.775921
0.778251
0.779869
0.780926
0.781558
0.781884
0.782002
0.781988
0.781904
0.781796
0.781697
0.781628
0.781628
0.781697
0.781796
0.781904
0.781988
0.782002
0.781884
0.781558
0.780926
0.779869
0.778251
0.775921
0.772735
0.768578
0.763396
0.757228
0.750233
0.742697
0.735001
0.727573
0.720822
0.715088
0.710618
0.707569
0.706028
0.705705
0.707258
0.710334
0.714847
0.72064
0.727465
0.734977
0.742758
0.750369
0.75742
0.763621
0.768812
0.772958
0.776118
0.778415
0.779995
0.781013
0.78161
0.781905
0.781995
0.781959
0.781857
0.781736
0.781628
0.781555
0.781555
0.781628
0.781736
0.781857
0.781959
0.781995
0.781905
0.78161
0.781013
0.779995
0.778415
0.776118
0.772958
0.768812
0.763621
0.75742
0.750369
0.742758
0.734977
0.727465
0.72064
0.714847
0.710334
0.707258
0.705705
0.705705
0.707258
0.710334
0.714847
0.72064
0.727465
0.734977
0.742758
0.750369
0.75742
0.763621
0.768812
0.772958
0.776118
0.778415
0.779995
0.781013
0.78161
0.781905
0.781995
0.781959
0.781857
0.781736
0.781628
0.781555
0.781555
0.781628
0.781736
0.781857
0.781959
0.781995
0.781905
0.78161
0.781013
0.779995
0.778415
0.776118
0.772958
0.768812
0.763621
0.75742
0.750369
0.742758
0.734977
0.727465
0.72064
0.714847
0.710334
0.707258
0.705705
0.706028
0.707569
0.710618
0.715088
0.720822
0.727573
0.735001
0.742697
0.750233
0.757228
0.763396
0.768578
0.772735
0.775921
0.778251
0.779869
0.780926
0.781558
0.781884
0.782002
0.781988
0.781904
0.781796
0.781697
0.781628
0.781628
0.781697
0.781796
0.781904
0.781988
0.782002
0.781884
0.781558
0.780926
0.779869
0.778251
0.775921
0.772735
0.768578
0.763396
0.757228
0.750233
0.742697
0.735001
0.727573
0.720822
0.715088
0.710618
0.707569
0.706028
0.706666
0.708182
0.711179
0.715566
0.721184
0.727789
0.735051
0.742579
0.749966
0.756846
0.762945
0.768104
0.772276
0.775508
0.777902
0.779592
0.780721
0.781422
0.78181
0.78198
0.78201
0.781961
0.781878
0.781796
0.781736
0.781736
0.781796
0.781878
0.781961
0.78201
0.78198
0.78181
0.781422
0.780721
0.779592
0.777902
0.775508
0.772276
0.768104
0.762945
0.756846
0.749966
0.742579
0.735051
0.727789
0.721184
0.715566
0.711179
0.708182
0.706666
0.707609
0.709089
0.712012
0.716279
0.721729
0.728121
0.735142
0.742423
0.749586
0.756292
0.76228
0.767395
0.771582
0.774872
0.777354
0.779145
0.780379
0.78118
0.781658
0.781906
0.782002
0.782005
0.781961
0.781904
0.781857
0.781857
0.781904
0.781961
0.782005
0.782002
0.781906
0.781658
0.78118
0.780379
0.779145
0.777354
0.774872
0.771582
0.767395
0.76228
0.756292
0.749586
0.742423
0.735142
0.728121
0.721729
0.716279
0.712012
0.709089
0.707609
0.708845
0.71028
0.713107
0.717223
0.722459
0.728581
0.735291
0.742252
0.74912
0.75559
0.761421
0.766462
0.770652
0.774005
0.776589
0.778505
0.779871
0.7808
0.781396
0.781747
0.78193
0.782002
0.78201
0.781988
0.781959
0.781959
0.781988
0.78201
0.782002
0.78193
0.781747
0.781396
0.7808
0.779871
0.778505
0.776589
0.774005
0.770652
0.766462
0.761421
0.75559
0.74912
0.742252
0.735291
0.728581
0.722459
0.717223
0.713107
0.71028
0.708845
0.710356
0.711738
0.714453
0.718389
0.723374
0.729177
0.735518
0.742094
0.748603
0.754773
0.760394
0.765322
0.76949
0.772896
0.775588
0.777643
0.779161
0.780242
0.780979
0.781458
0.781747
0.781906
0.78198
0.782002
0.781995
0.781995
0.782002
0.78198
0.781906
0.781747
0.781458
0.780979
0.780242
0.779161
0.777643
0.775588
0.772896
0.76949
0.765322
0.760394
0.754773
0.748603
0.742094
0.735518
0.729177
0.723374
0.718389
0.714453
0.711738
0.710356
0.712119
0.713441
0.716031
0.719767
0.72447
0.729916
0.735843
0.741981
0.748069
0.75388
0.759231
0.763996
0.768104
0.77154
0.774328
0.776524
0.778205
0.779454
0.780354
0.780979
0.781396
0.781658
0.78181
0.781884
0.781905
0.781905
0.781884
0.78181
0.781658
0.781396
0.780979
0.780354
0.779454
0.778205
0.776524
0.774328
0.77154
0.768104
0.763996
0.759231
0.75388
0.748069
0.741981
0.735843
0.729916
0.72447
0.719767
0.716031
0.713441
0.712119
0.714106
0.715362
0.717816
0.721336
0.725739
0.7308
0.73628
0.741938
0.747556
0.752949
0.75797
0.762512
0.766509
0.769933
0.772791
0.775114
0.776956
0.778381
0.779454
0.780242
0.7808
0.78118
0.781422
0.781558
0.78161
0.78161
0.781558
0.781422
0.78118
0.7808
0.780242
0.779454
0.778381
0.776956
0.775114
0.772791
0.769933
0.766509
0.762512
0.75797
0.752949
0.747556
0.741938
0.73628
0.7308
0.725739
0.721336
0.717816
0.715362
0.714106
0.716281
0.717468
0.719779
0.723073
0.727162
0.731824
0.736835
0.741985
0.747095
0.752021
0.756651
0.760904
0.764725
0.76808
0.770961
0.77338
0.775364
0.776956
0.778205
0.779161
0.779871
0.780379
0.780721
0.780926
0.781013
0.781013
0.780926
0.780721
0.780379
0.779871
0.779161
0.778205
0.776956
0.775364
0.77338
0.770961
0.76808
0.764725
0.760904
0.756651
0.752021
0.747095
0.741985
0.736835
0.731824
0.727162
0.723073
0.719779
0.717468
0.716281
0.718601
0.719717
0.721881
0.724944
0.728713
0.73297
0.737504
0.742131
0.746707
0.751124
0.755308
0.759206
0.762777
0.765991
0.768832
0.771292
0.77338
0.775114
0.776524
0.777643
0.778505
0.779145
0.779592
0.779869
0.779995
0.779995
0.779869
0.779592
0.779145
0.778505
0.777643
0.776524
0.775114
0.77338
0.771292
0.768832
0.765991
0.762777
0.759206
0.755308
0.751124
0.746707
0.742131
0.737504
0.73297
0.728713
0.724944
0.721881
0.719717
0.718601
0.721015
0.722059
0.724074
0.726907
0.730357
0.734211
0.73827
0.742371
0.746397
0.750278
0.75397
0.757448
0.760692
0.763684
0.766403
0.768832
0.770961
0.772791
0.774328
0.775588
0.776589
0.777354
0.777902
0.778251
0.778415
0.778415
0.778251
0.777902
0.777354
0.776589
0.775588
0.774328
0.772791
0.770961
0.768832
0.766403
0.763684
0.760692
0.757448
0.75397
0.750278
0.746397
0.742371
0.73827
0.734211
0.730357
0.726907
0.724074
0.722059
0.721015
0.723462
0.724435
0.726303
0.728906
0.732044
0.735505
0.739098
0.742679
0.746156
0.749483
0.752648
0.755652
0.758497
0.761179
0.763684
0.765991
0.76808
0.769933
0.77154
0.772896
0.774005
0.774872
0.775508
0.775921
0.776118
0.776118
0.775921
0.775508
0.774872
0.774005
0.772896
0.77154
0.769933
0.76808
0.765991
0.763684
0.761179
0.758497
0.755652
0.752648
0.749483
0.746156
0.742679
0.739098
0.735505
0.732044
0.728906
0.726303
0.724435
0.723462
0.725874
0.726775
0.728498
0.730879
0.733715
0.736795
0.739939
0.743015
0.745951
0.748721
0.751337
0.753824
0.756207
0.758497
0.760692
0.762777
0.764725
0.766509
0.768104
0.76949
0.770652
0.771582
0.772276
0.772735
0.772958
0.772958
0.772735
0.772276
0.771582
0.770652
0.76949
0.768104
0.766509
0.764725
0.762777
0.760692
0.758497
0.756207
0.753824
0.751337
0.748721
0.745951
0.743015
0.739939
0.736795
0.733715
0.730879
0.728498
0.726775
0.725874
0.72817
0.729002
0.730584
0.73275
0.735295
0.738012
0.740727
0.743319
0.74573
0.747951
0.750011
0.751954
0.753824
0.755652
0.757448
0.759206
0.760904
0.762512
0.763996
0.765322
0.766462
0.767395
0.768104
0.768578
0.768812
0.768812
0.768578
0.768104
0.767395
0.766462
0.765322
0.763996
0.762512
0.760904
0.759206
0.757448
0.755652
0.753824
0.751954
0.750011
0.747951
0.74573
0.743319
0.740727
0.738012
0.735295
0.73275
0.730584
0.729002
0.72817
0.730263
0.731027
0.732474
0.734434
0.736703
0.739076
0.741384
0.743517
0.745426
0.747114
0.748623
0.750011
0.751337
0.752648
0.75397
0.755308
0.756651
0.75797
0.759231
0.760394
0.761421
0.76228
0.762945
0.763396
0.763621
0.763621
0.763396
0.762945
0.76228
0.761421
0.760394
0.759231
0.75797
0.756651
0.755308
0.75397
0.752648
0.751337
0.750011
0.748623
0.747114
0.745426
0.743517
0.741384
0.739076
0.736703
0.734434
0.732474
0.731027
0.730263
0.732061
0.732761
0.734078
0.735843
0.737851
0.739899
0.741826
0.743527
0.744961
0.74614
0.747114
0.747951
0.748721
0.749483
0.750278
0.751124
0.752021
0.752949
0.75388
0.754773
0.75559
0.756292
0.756846
0.757228
0.75742
0.75742
0.757228
0.756846
0.756292
0.75559
0.754773
0.75388
0.752949
0.752021
0.751124
0.750278
0.749483
0.748721
0.747951
0.747114
0.74614
0.744961
0.743527
0.741826
0.739899
0.737851
0.735843
0.734078
0.732761
0.732061
0.733477
0.734116
0.735311
0.736893
0.738656
0.740402
0.741973
0.743271
0.744261
0.744961
0.745426
0.74573
0.745951
0.746156
0.746397
0.746707
0.747095
0.747556
0.748069
0.748603
0.74912
0.749586
0.749966
0.750233
0.750369
0.750369
0.750233
0.749966
0.749586
0.74912
0.748603
0.748069
0.747556
0.747095
0.746707
0.746397
0.746156
0.745951
0.74573
0.745426
0.744961
0.744261
0.743271
0.741973
0.740402
0.738656
0.736893
0.735311
0.734116
0.733477
0.734441
0.735022
0.736104
0.737515
0.739052
0.740519
0.741763
0.74269
0.743271
0.743527
0.743517
0.743319
0.743015
0.742679
0.742371
0.742131
0.741985
0.741938
0.741981
0.742094
0.742252
0.742423
0.742579
0.742697
0.742758
0.742758
0.742697
0.742579
0.742423
0.742252
0.742094
0.741981
0.741938
0.741985
0.742131
0.742371
0.742679
0.743015
0.743319
0.743517
0.743527
0.743271
0.74269
0.741763
0.740519
0.739052
0.737515
0.736104
0.735022
0.734441
0.734916
0.735446
0.736423
0.737678
0.739009
0.740223
0.741171
0.741763
0.741973
0.741826
0.741384
0.740727
0.739939
0.739098
0.73827
0.737504
0.736835
0.73628
0.735843
0.735518
0.735291
0.735142
0.735051
0.735001
0.734977
0.734977
0.735001
0.735051
0.735142
0.735291
0.735518
0.735843
0.73628
0.736835
0.737504
0.73827
0.739098
0.739939
0.740727
0.741384
0.741826
0.741973
0.741763
0.741171
0.740223
0.739009
0.737678
0.736423
0.735446
0.734916
0.734917
0.7354
0.736284
0.7374
0.738548
0.739538
0.740223
0.740519
0.740402
0.739899
0.739076
0.738012
0.736795
0.735505
0.734211
0.73297
0.731824
0.7308
0.729916
0.729177
0.728581
0.728121
0.727789
0.727573
0.727465
0.727465
0.727573
0.727789
0.728121
0.728581
0.729177
0.729916
0.7308
0.731824
0.73297
0.734211
0.735505
0.736795
0.738012
0.739076
0.739899
0.740402
0.740519
0.740223
0.739538
0.738548
0.7374
0.736284
0.7354
0.734917
0.734518
0.73496
0.735763
0.73676
0.737751
0.738548
0.739009
0.739052
0.738656
0.737851
0.736703
0.735295
0.733715
0.732044
0.730357
0.728713
0.727162
0.725739
0.72447
0.723374
0.722459
0.721729
0.721184
0.720822
0.72064
0.72064
0.720822
0.721184
0.721729
0.722459
0.723374
0.72447
0.725739
0.727162
0.728713
0.730357
0.732044
0.733715
0.735295
0.736703
0.737851
0.738656
0.739052
0.739009
0.738548
0.737751
0.73676
0.735763
0.73496
0.734518
0.733855
0.734263
0.735
0.735898
0.73676
0.7374
0.737678
0.737515
0.736893
0.735843
0.734434
0.73275
0.730879
0.728906
0.726907
0.724944
0.723073
0.721336
0.719767
0.718389
0.717223
0.716279
0.715566
0.715088
0.714847
0.714847
0.715088
0.715566
0.716279
0.717223
0.718389
0.719767
0.721336
0.723073
0.724944
0.726907
0.728906
0.730879
0.73275
0.734434
0.735843
0.736893
0.737515
0.737678
0.7374
0.73676
0.735898
0.735
0.734263
0.733855
0.733108
0.733491
0.734177
0.735
0.735763
0.736284
0.736423
0.736104
0.735311
0.734078
0.732474
0.730584
0.728498
0.726303
0.724074
0.721881
0.719779
0.717816
0.716031
0.714453
0.713107
0.712012
0.711179
0.710618
0.710334
0.710334
0.710618
0.711179
0.712012
0.713107
0.714453
0.716031
0.717816
0.719779
0.721881
0.724074
0.726303
0.728498
0.730584
0.732474
0.734078
0.735311
0.736104
0.736423
0.736284
0.735763
0.735
0.734177
0.733491
0.733108
0.732474
0.732839
0.733491
0.734263
0.73496
0.7354
0.735446
0.735022
0.734116
0.732761
0.731027
0.729002
0.726775
0.724435
0.722059
0.719717
0.717468
0.715362
0.713441
0.711738
0.71028
0.709089
0.708182
0.707569
0.707258
0.707258
0.707569
0.708182
0.709089
0.71028
0.711738
0.713441
0.715362
0.717468
0.719717
0.722059
0.724435
0.726775
0.729002
0.731027
0.732761
0.734116
0.735022
0.735446
0.7354
0.73496
0.734263
0.733491
0.732839
0.732474
0.732117
0.732474
0.733108
0.733855
0.734518
0.734917
0.734916
0.734441
0.733477
0.732061
0.730263
0.72817
0.725874
0.723462
0.721015
0.718601
0.716281
0.714106
0.712119
0.710356
0.708845
0.707609
0.706666
0.706028
0.705705
0.705705
0.706028
0.706666
0.707609
0.708845
0.710356
0.712119
0.714106
0.716281
0.718601
0.721015
0.723462
0.725874
0.72817
0.730263
0.732061
0.733477
0.734441
0.734916
0.734917
0.734518
0.733855
0.733108
0.732474
0.732117
SCALARS HU float 1
LOOKUP_TABLE default
-0.00779682
-0.0230303
-0.0373849
-0.0503373
-0.06144
-0.0703636
-0.0769299
-0.0811223
-0.0830667
-0.0829965
-0.0812108
-0.0780294
-0.0737618
-0.0686871
-0.0630474
-0.0570438
-0.0508377
-0.044554
-0.0382843
-0.0320912
-0.0260104
-0.0200563
-0.0142233
-0.00849065
-0.00282544
0.00282544
0.00849065
0.0142233
0.0200563
0.0260104
0.0320912
0.0382843
0.044554
0.0508377
0.0570438
0.0630474
0.0686871
0.0737618
0.0780294
0.0812108
0.0829965
0.0830667
0.0811223
0.0769299
0.0703636
0.06144
0.0503373
0.0373849
0.0230303
0.00779682
-0.00778789
-0.0230055
-0.0373489
-0.050297
-0.0614022
-0.0703344
-0.0769134
-0.0811203
-0.0830788
-0.083021
-0.0812448
-0.0780701
-0.0738061
-0.0687328
-0.0630925
-0.057087
-0.0508785
-0.044592
-0.0383196
-0.0321231
-0.0260387
-0.0200799
-0.0142412
-0.00850187
-0.00282925
0.00282925
0.00850187
0.0142412
0.0200799
0.0260387
0.0321231
0.0383196
0.044592
0.0508785
0.057087
0.0630925
0.0687328
0.0738061
0.0780701
0.0812448
0.083021
0.0830788
0.0811203
0.0769134
0.0703344
0.0614022
0.050297
0.0373489
0.0230055
0.00778789
-0.00777099
-0.0229587
-0.0372822
-0.0502237
-0.0613373
-0.0702899
-0.0768983
-0.0811383
-0.0831299
-0.083102
-0.0813504
-0.0781943
-0.073943
-0.0688773
-0.0632402
-0.0572344
-0.0510227
-0.0447307
-0.0384502
-0.0322432
-0.026145
-0.0201684
-0.0143082
-0.00854365
-0.00284351
0.00284351
0.00854365
0.0143082
0.0201684
0.026145
0.0322432
0.0384502
0.0447307
0.0510227
0.0572344
0.0632402
0.0688773
0.073943
0.0781943
0.0813504
0.083102
0.0831299
0.0811383
0.0768983
0.0702899
0.0613373
0.0502237
0.0372822
0.0229587
0.00777099
-0.00774757
-0.0228947
-0.0371925
-0.0501301
-0.0612622
-0.0702535
-0.0769145
-0.0812143
-0.0832673
-0.0832965
-0.0815948
-0.0784802
-0.0742614
-0.0692198
-0.0635985
-0.0576009
-0.0513895
-0.0450899
-0.0387932
-0.0325604
-0.0264261
-0.0204027
-0.014485
-0.00865388
-0.00288104
0.00288104
0.00865388
0.014485
0.0204027
0.0264261
0.0325604
0.0387932
0.0450899
0.0513895
0.0576009
0.0635985
0.0692198
0.0742614
0.0784802
0.0815948
0.0832965
0.0832673
0.0812143
0.0769145
0.0702535
0.0612622
0.0501301
0.0371925
0.0228947
0.00774757
-0.0077196
-0.0228188
-0.0370902
-0.0500309
-0.0611985
-0.0702539
-0.0770003
-0.0813979
-0.0835517
-0.0836793
-0.0820674
-0.079032
-0.0748807
-0.0698939
-0.0643144
-0.0583437
-0.0521431
-0.0458358
-0.039511
-0.0332274
-0.0270181
-0.0208957
-0.0148565
-0.00888551
-0.00295983
0.00295983
0.00888551
0.0148565
0.0208957
0.0270181
0.0332274
0.039511
0.0458358
0.0521431
0.0583437
0.0643144
0.0698939
0.0748807
0.079032
0.0820674
0.0836793
0.0835517
0.0813979
0.0770003
0.0702539
0.0611985
0.0500309
0.0370902
0.0228188
0.0077196
-0.00768862
-0.0227371
-0.0369849
-0.0499418
-0.0611683
-0.0703219
-0.0771968
-0.0817414
-0.0840506
-0.0843321
-0.082867
-0.0799662
-0.0759351
-0.0710515
-0.0655547
-0.0596427
-0.0534716
-0.0471592
-0.0407898
-0.0344183
-0.0280762
-0.0217762
-0.0155195
-0.00929783
-0.00310004
0.00310004
0.00929783
0.0155195
0.0217762
0.0280762
0.0344183
0.0407898
0.0471592
0.0534716
0.0596427
0.0655547
0.0710515
0.0759351
0.0799662
0.082867
0.0843321
0.0840506
0.0817414
0.0771968
0.0703219
0.0611683
0.0499418
0.0369849
0.0227371
0.00768862
-0.00765663
-0.0226538
-0.0368856
-0.0498758
-0.0611912
-0.0704853
-0.0775412
-0.0822948
-0.0848268
-0.0853348
-0.0840899
-0.0813973
-0.077557
-0.0728415
-0.0674836
-0.0616727
-0.0555559
-0.0492415
-0.042805
-0.0362953
-0.029742
-0.0231606
-0.0165595
-0.00994397
-0.00331944
0.00331944
0.00994397
0.0165595
0.0231606
0.029742
0.0362953
0.042805
0.0492415
0.0555559
0.0616727
0.0674836
0.0728415
0.077557
0.0813973
0.0840899
0.0853348
0.0848268
0.0822948
0.0775412
0.0704853
0.0611912
0.0498758
0.0368856
0.0226538
0.00765663
-0.00762418
-0.022573
-0.0367981
-0.0498433
-0.0612826
-0.0707657
-0.078065
-0.0830996
-0.0859358
-0.086756
-0.0858209
-0.0834253
-0.0798611
-0.0753912
-0.070237
-0.0645746
-0.0585364
-0.0522169
-0.0456795
-0.0389664
-0.0321055
-0.0251185
-0.0180264
-0.010853
-0.00362793
0.00362793
0.010853
0.0180264
0.0251185
0.0321055
0.0389664
0.0456795
0.0522169
0.0585364
0.0645746
0.070237
0.0753912
0.0798611
0.0834253
0.0858209
0.086756
0.0859358
0.0830996
0.078065
0.0707657
0.0612826
0.0498433
0.0367981
0.022573
0.00762418
-0.00759242
-0.0224957
-0.0367263
-0.0498503
-0.0614522
-0.0711793
-0.0787906
-0.0841887
-0.0874199
-0.088651
-0.0881262
-0.0861271
-0.0829318
-0.0787887
-0.0739019
-0.0684287
-0.0624819
-0.0561384
-0.0494496
-0.042451
-0.0351728
-0.0276472
-0.0199128
-0.0120187
-0.00402299
0.00402299
0.0120187
0.0199128
0.0276472
0.0351728
0.042451
0.0494496
0.0561384
0.0624819
0.0684287
0.0739019
0.0787887
0.0829318
0.0861271
0.0881262
0.088651
0.0874199
0.0841887
0.0787906
0.0711793
0.0614522
0.0498503
0.0367263
0.0224957
0.00759242
-0.00756093
-0.0224233
-0.0366715
-0.0498997
-0.0617056
-0.0717349
-0.0797338
-0.085584
-0.0893102
-0.0910572
-0.0910501
-0.0895497
-0.0868146
-0.0830715
-0.0785014
-0.0732374
-0.0673705
-0.0609602
-0.0540476
-0.0466669
-0.0388562
-0.0306636
-0.0221516
-0.0133968
-0.00448941
0.00448941
0.0133968
0.0221516
0.0306636
0.0388562
0.0466669
0.0540476
0.0609602
0.0673705
0.0732374
0.0785014
0.0830715
0.0868146
0.0895497
0.0910501
0.0910572
0.0893102
0.085584
0.0797338
0.0717349
0.0617056
0.0498997
0.0366715
0.0224233
0.00756093
-0.00753021
-0.0223553
-0.0366335
-0.0499918
-0.062044
-0.072437
-0.0809018
-0.0872984
-0.0916238
-0.0939956
-0.094612
-0.093707
-0.09151
-0.0882193
-0.083987
-0.0789202
-0.0730889
-0.0665396
-0.0593107
-0.0514429
-0.0429897
-0.034022
-0.0246282
-0.0149152
-0.00500197
0.00500197
0.0149152
0.0246282
0.034022
0.0429897
0.0514429
0.0593107
0.0665396
0.0730889
0.0789202
0.083987
0.0882193
0.09151
0.093707
0.094612
0.0939956
0.0916238
0.0872984
0.0809018
0.072437
0.062044
0.0499918
0.0366335
0.0223553
0.00753021
-0.00749961
-0.0222912
-0.0366115
-0.0501248
-0.0624667
-0.0732844
-0.0822962
-0.0893345
-0.0943643
-0.0974673
-0.0988051
-0.098575
-0.09697
-0.0941519
-0.0902415
-0.0853213
-0.0794466
-0.0726612
-0.0650107
-0.0565532
-0.0473656
-0.0375449
-0.0272088
-0.0164893
-0.00553266
0.00553266
0.0164893
0.0272088
0.0375449
0.0473656
0.0565532
0.0650107
0.0726612
0.0794466
0.0853213
0.0902415
0.0941519
0.09697
0.098575
0.0988051
0.0974673
0.0943643
0.0893345
0.0822962
0.0732844
0.0624667
0.0501248
0.0366115
0.0222912
0.00749961
-0.00746946
-0.0222303
-0.0366038
-0.0502971
-0.0629696
-0.0742738
-0.0839116
-0.0916858
-0.09752
-0.101451
-0.103591
-0.104091
-0.103098
-0.100734
-0.0970889
-0.0922284
-0.0862048
-0.0790716
-0.0708951
-0.0617602
-0.0517732
-0.0410606
-0.0297643
-0.0180412
-0.00605428
0.00605428
0.0180412
0.0297643
0.0410606
0.0517732
0.0617602
0.0708951
0.0790716
0.0862048
0.0922284
0.0970889
0.100734
0.103098
0.104091
0.103591
0.101451
0.09752
0.0916858
0.0839116
0.0742738
0.0629696
0.0502971
0.0366038
0.0222303
0.00746946
-0.00743933
-0.0221728
-0.0366096
-0.0505053
-0.0635483
-0.0753969
-0.0857368
-0.0943338
-0.101062
-0.1059
-0.108901
-0.110153
-0.109753
-0.107784
-0.104314
-0.0994004
-0.0931088
-0.0855177
-0.0767252
-0.0668508
-0.0560332