# vtk DataFile Version 2.0
HPC Tutorials: Michael Bader, Kaveh Rahnema, Oliver Meister
ASCII
DATASET RECTILINEAR_GRID
DIMENSIONS 51 51 1
X_COORDINATES 51 float
0
0.02
0.04
0.06
0.08
0.1
0.12
0.14
0.16
0.18
0.2
0.22
0.24
0.26
0.28
0.3
0.32
0.34
0.36
0.38
0.4
0.42
0.44
0.46
0.48
0.5
0.52
0.54
0.56
0.58
0.6
0.62
0.64
0.66
0.68
0.7
0.72
0.74
0.76
0.78
0.8
0.82
0.84
0.86
0.88
0.9
0.92
0.94
0.96
0.98
1
Y_COORDINATES 51 float
0
0.02
0.04
0.06
0.08
0.1
0.12
0.14
0.16
0.18
0.2
0.22
0.24
0.26
0.28
0.3
0.32
0.34
0.36
0.38
0.4
0.42
0.44
0.46
0.48
0.5
0.52
0.54
0.56
0.58
0.6
0.62
0.64
0.66
0.68
0.7
0.72
0.74
0.76
0.78
0.8
0.82
0.84
0.86
0.88
0.9
0.92
0.94
0.96
0.98
1
Z_COORDINATES 1 float
0
CELL_DATA 2500
SCALARS H float 1
LOOKUP_TABLE default
0.793164
0.793459
0.794011
0.794745
0.79556
0.796335
0.796949
0.797296
0.797304
0.796942
0.796227
0.795218
0.794002
0.792676
0.791332
0.790043
0.788864
0.787825
0.786936
0.786199
0.785605
0.785144
0.784807
0.784585
0.784474
0.784474
0.784585
0.784807
0.785144
0.785605
0.786199
0.786936
0.787825
0.788864
0.790043
0.791332
0.792676
0.794002
0.795218
0.796227
0.796942
0.797304
0.797296
0.796949
0.796335
0.79556
0.794745
0.794011
0.793459
0.793164
0.793459
0.793725
0.794219
0.794867
0.795571
0.796215
0.796683
0.796875
0.796727
0.796213
0.795357
0.794222
0.792897
0.79148
0.790062
0.788718
0.787496
0.786426
0.785517
0.784766
0.784164
0.783699
0.78336
0.783138
0.783026
0.783026
0.783138
0.78336
0.783699
0.784164
0.784766
0.785517
0.786426
0.787496
0.788718
0.790062
0.79148
0.792897
0.794222
0.795357
0.796213
0.796727
0.796875
0.796683
0.796215
0.795571
0.794867
0.794219
0.793725
0.793459
0.794011
0.794219
0.794597
0.795076
0.795564
0.795953
0.796137
0.79603
0.795578
0.794769
0.793637
0.792254
0.790712
0.789113
0.787547
0.786086
0.784776
0.78364
0.782684
0.781901
0.781277
0.780799
0.780452
0.780226
0.780113
0.780113
0.780226
0.780452
0.780799
0.781277
0.781901
0.782684
0.78364
0.784776
0.786086
0.787547
0.789113
0.790712
0.792254
0.793637
0.794769
0.795578
0.79603
0.796137
0.795953
0.795564
0.795076
0.794597
0.794219
0.794011
0.794745
0.794867
0.795076
0.795311
0.795487
0.795509
0.795287
0.794752
0.793866
0.792636
0.791108
0.789364
0.787505
0.785634
0.783843
0.782199
0.780744
0.779498
0.77846
0.777615
0.776949
0.776441
0.776075
0.775837
0.775719
0.775719
0.775837
0.776075
0.776441
0.776949
0.777615
0.77846
0.779498
0.780744
0.782199
0.783843
0.785634
0.787505
0.789364
0.791108
0.792636
0.793866
0.794752
0.795287
0.795509
0.795487
0.795311
0.795076
0.794867
0.794745
0.79556
0.795571
0.795564
0.795487
0.795267
0.794828
0.7941
0.793031
0.791607
0.78985
0.787825
0.785625
0.78336
0.781136
0.779044
0.777149
0.77549
0.774079
0.772911
0.771968
0.771228
0.770666
0.770263
0.770002
0.769872
0.769872
0.770002
0.770263
0.770666
0.771228
0.771968
0.772911
0.774079
0.77549
0.777149
0.779044
0.781136
0.78336
0.785625
0.787825
0.78985
0.791607
0.793031
0.7941
0.794828
0.795267
0.795487
0.795564
0.795571
0.79556
0.796335
0.796215
0.795953
0.795509
0.794828
0.793856
0.792543
0.790862
0.788821
0.786461
0.783864
0.781136
0.778393
0.775747
0.773289
0.771081
0.769158
0.767528
0.76618
0.765092
0.764237
0.763588
0.763123
0.762823
0.762675
0.762675
0.762823
0.763123
0.763588
0.764237
0.765092
0.76618
0.767528
0.769158
0.771081
0.773289
0.775747
0.778393
0.781136
0.783864
0.786461
0.788821
0.790862
0.792543
0.793856
0.794828
0.795509
0.795953
0.796215
0.796335
0.796949
0.796683
0.796137
0.795287
0.7941
0.792543
0.790594
0.78825
0.785541
0.782531
0.779315
0.776013
0.772747
0.769633
0.766761
0.764192
0.761957
0.760061
0.758488
0.757214
0.756209
0.755444
0.754893
0.754535
0.754359
0.754359
0.754535
0.754893
0.755444
0.756209
0.757214
0.758488
0.760061
0.761957
0.764192
0.766761
0.769633
0.772747
0.776013
0.779315
0.782531
0.785541
0.78825
0.790594
0.792543
0.7941
0.795287
0.796137
0.796683
0.796949
0.797296
0.796875
0.79603
0.794752
0.793031
0.790862
0.78825
0.785219
0.781821
0.77814
0.774288
0.770393
0.766586
0.762984
0.759676
0.756722
0.754147
0.751955
0.750128
0.748639
0.747457
0.746551
0.745895
0.745469
0.745257
0.745257
0.745469
0.745895
0.746551
0.747457
0.748639
0.750128
0.751955
0.754147
0.756722
0.759676
0.762984
0.766586
0.770393
0.774288
0.77814
0.781821
0.785219
0.78825
0.790862
0.793031
0.794752
0.79603
0.796875
0.797296
0.797304
0.796727
0.795578
0.793866
0.791607
0.788821
0.785541
0.781821
0.777735
0.773389
0.768909
0.764432
0.760094
0.756011
0.752273
0.748933
0.746017
0.743523
0.741432
0.739718
0.738347
0.73729
0.736521
0.736018
0.735769
0.735769
0.736018
0.736521
0.73729
0.738347
0.739718
0.741432
0.743523
0.746017
0.748933
0.752273
0.756011
0.760094
0.764432
0.768909
0.773389
0.777735
0.781821
0.785541
0.788821
0.791607
0.793866
0.795578
0.796727
0.797304
0.796942
0.796213
0.794769
0.792636
0.78985
0.786461
0.782531
0.77814
0.773389
0.768404
0.763324
0.758296
0.753459
0.748928
0.744787
0.741088
0.737851
0.735072
0.732732
0.730801
0.729248
0.728043
0.727163
0.726585
0.726299
0.726299
0.726585
0.727163
0.728043
0.729248
0.730801
0.732732
0.735072
0.737851
0.741088
0.744787
0.748928
0.753459
0.758296
0.763324
0.768404
0.773389
0.77814
0.782531
0.786461
0.78985
0.792636
0.794769
0.796213
0.796942
0.796227
0.795357
0.793637
0.791108
0.787825
0.783864
0.779315
0.774288
0.768909
0.763324
0.757688
0.752156
0.746867
0.741935
0.737438
0.733422
0.729904
0.726875
0.724314
0.722191
0.720477
0.719142
0.718161
0.717517
0.717196
0.717196
0.717517
0.718161
0.719142
0.720477
0.722191
0.724314
0.726875
0.729904
0.733422
0.737438
0.741935
0.746867
0.752156
0.757688
0.763324
0.768909
0.774288
0.779315
0.783864
0.787825
0.791108
0.793637
0.795357
0.796227
0.795218
0.794222
0.792254
0.789364
0.785625
0.781136
0.776013
0.770393
0.764432
0.758296
0.752156
0.746173
0.740488
0.735209
0.73041
0.726129
0.722376
0.719141
0.716399
0.71412
0.712272
0.710829
0.709766
0.709067
0.708718
0.708718
0.709067
0.709766
0.710829
0.712272
0.71412
0.716399
0.719141
0.722376
0.726129
0.73041
0.735209
0.740488
0.746173
0.752156
0.758296
0.764432
0.770393
0.776013
0.781136
0.785625
0.789364
0.792254
0.794222
0.795218
0.794002
0.792897
0.790712
0.787505
0.78336
0.778393
0.772747
0.766586
0.760094
0.753459
0.746867
0.740488
0.734461
0.72889
0.723842
0.719348
0.71541
0.712014
0.709131
0.70673
0.704781
0.703254
0.702129
0.701386
0.701016
0.701016
0.701386
0.702129
0.703254
0.704781
0.70673
0.709131
0.712014
0.71541
0.719348
0.723842
0.72889
0.734461
0.740488
0.746867
0.753459
0.760094
0.766586
0.772747
0.778393
0.78336
0.787505
0.790712
0.792897
0.794002
0.792676
0.79148
0.789113
0.785634
0.781136
0.775747
0.769633
0.762984
0.756011
0.748928
0.741935
0.735209
0.72889
0.723078
0.717829
0.713167
0.709087
0.70557
0.702583
0.700093
0.698069
0.696483
0.695311
0.694538
0.694152
0.694152
0.694538
0.695311
0.696483
0.698069
0.700093
0.702583
0.70557
0.709087
0.713167
0.717829
0.723078
0.72889
0.735209
0.741935
0.748928
0.756011
0.762984
0.769633
0.775747
0.781136
0.785634
0.789113
0.79148
0.792676
0.791332
0.790062
0.787547
0.783843
0.779044
0.773289
0.766761
0.759676
0.752273
0.744787
0.737438
0.73041
0.723842
0.717829
0.712419
0.707627
0.703441
0.699835
0.696773
0.694221
0.692145
0.690517
0.689314
0.68852
0.688123
0.688123
0.68852
0.689314
0.690517
0.692145
0.694221
0.696773
0.699835
0.703441
0.707627
0.712419
0.717829
0.723842
0.73041
0.737438
0.744787
0.752273
0.759676
0.766761
0.773289
0.779044
0.783843
0.787547
0.790062
0.791332
0.790043
0.788718
0.786086
0.782199
0.777149
0.771081
0.764192
0.756722
0.748933
0.741088
0.733422
0.726129
0.719348
0.713167
0.707627
0.702734
0.698468
0.694798
0.691684
0.689089
0.686977
0.685321
0.684097
0.683289
0.682885
0.682885
0.683289
0.684097
0.685321
0.686977
0.689089
0.691684
0.694798
0.698468
0.702734
0.707627
0.713167
0.719348
0.726129
0.733422
0.741088
0.748933
0.756722
0.764192
0.771081
0.777149
0.782199
0.786086
0.788718
0.790043
0.788864
0.787496
0.784776
0.780744
0.77549
0.769158
0.761957
0.754147
0.746017
0.737851
0.729904
0.722376
0.71541
0.709087
0.703441
0.698468
0.694142
0.690425
0.687275
0.68465
0.682515
0.68084
0.679603
0.678785
0.678376
0.678376
0.678785
0.679603
0.68084
0.682515
0.68465
0.687275
0.690425
0.694142
0.698468
0.703441
0.709087
0.71541
0.722376
0.729904
0.737851
0.746017
0.754147
0.761957
0.769158
0.77549
0.780744
0.784776
0.787496
0.788864
0.787825
0.786426
0.78364
0.779498
0.774079
0.767528
0.760061
0.751955
0.743523
0.735072
0.726875
0.719141
0.712014
0.70557
0.699835
0.694798
0.690425
0.686674
0.683497
0.680852
0.678701
0.677014
0.675767
0.674944
0.674532
0.674532
0.674944
0.675767
0.677014
0.678701
0.680852
0.683497
0.686674
0.690425
0.694798
0.699835
0.70557
0.712014
0.719141
0.726875
0.735072
0.743523
0.751955
0.760061
0.767528
0.774079
0.779498
0.78364
0.786426
0.787825
0.786936
0.785517
0.782684
0.77846
0.772911
0.76618
0.758488
0.750128
0.741432
0.732732
0.724314
0.716399
0.709131
0.702583
0.696773
0.691684
0.687275
0.683497
0.680301
0.677642
0.67548
0.673785
0.672532
0.671704
0.671291
0.671291
0.671704
0.672532
0.673785
0.67548
0.677642
0.680301
0.683497
0.687275
0.691684
0.696773
0.702583
0.709131
0.716399
0.724314
0.732732
0.741432
0.750128
0.758488
0.76618
0.772911
0.77846
0.782684
0.785517
0.786936
0.786199
0.784766
0.781901
0.777615
0.771968
0.765092
0.757214
0.748639
0.739718
0.730801
0.722191
0.71412
0.70673
0.700093
0.694221
0.689089
0.68465
0.680852
0.677642
0.674972
0.672803
0.671102
0.669845
0.669015
0.6686
0.6686
0.669015
0.669845
0.671102
0.672803
0.674972
0.677642
0.680852
0.68465
0.689089
0.694221
0.700093
0.70673
0.71412
0.722191
0.730801
0.739718
0.748639
0.757214
0.765092
0.771968
0.777615
0.781901
0.784766
0.786199
0.785605
0.784164
0.781277
0.776949
0.771228
0.764237
0.756209
0.747457
0.738347
0.729248
0.720477
0.712272
0.704781
0.698069
0.692145
0.686977
0.682515
0.678701
0.67548
0.672803
0.670628
0.668923
0.667664
0.666832
0.666415
0.666415
0.666832
0.667664
0.668923
0.670628
0.672803
0.67548
0.678701
0.682515
0.686977
0.692145
0.698069
0.704781
0.712272
0.720477
0.729248
0.738347
0.747457
0.756209
0.764237
0.771228
0.776949
0.781277
0.784164
0.785605
0.785144
0.783699
0.780799
0.776441
0.770666
0.763588
0.755444
0.746551
0.73729
0.728043
0.719142
0.710829
0.703254
0.696483
0.690517
0.685321
0.68084
0.677014
0.673785
0.671102
0.668923
0.667216
0.665954
0.665121
0.664704
0.664704
0.665121
0.665954
0.667216
0.668923
0.671102
0.673785
0.677014
0.68084
0.685321
0.690517
0.696483
0.703254
0.710829
0.719142
0.728043
0.73729
0.746551
0.755444
0.763588
0.770666
0.776441
0.780799
0.783699
0.785144
0.784807
0.78336
0.780452
0.776075
0.770263
0.763123
0.754893
0.745895
0.736521
0.727163
0.718161
0.709766
0.702129
0.695311
0.689314
0.684097
0.679603
0.675767
0.672532
0.669845
0.667664
0.665954
0.664691
0.663857
0.66344
0.66344
0.663857
0.664691
0.665954
0.667664
0.669845
0.672532
0.675767
0.679603
0.684097
0.689314
0.695311
0.702129
0.709766
0.718161
0.727163
0.736521
0.745895
0.754893
0.763123
0.770263
0.776075
0.780452
0.78336
0.784807
0.784585
0.783138
0.780226
0.775837
0.770002
0.762823
0.754535
0.745469
0.736018
0.726585
0.717517
0.709067
0.701386
0.694538
0.68852
0.683289
0.678785
0.674944
0.671704
0.669015
0.666832
0.665121
0.663857
0.663022
0.662604
0.662604
0.663022
0.663857
0.665121
0.666832
0.669015
0.671704
0.674944
0.678785
0.683289
0.68852
0.694538
0.701386
0.709067
0.717517
0.726585
0.736018
0.745469
0.754535
0.762823
0.770002
0.775837
0.780226
0.783138
0.784585
0.784474
0.783026
0.780113
0.775719
0.769872
0.762675
0.754359
0.745257
0.735769
0.726299
0.717196
0.708718
0.701016
0.694152
0.688123
0.682885
0.678376
0.674532
0.671291
0.6686
0.666415
0.664704
0.66344
0.662604
0.662187
0.662187
0.662604
0.66344
0.664704
0.666415
0.6686
0.671291
0.674532
0.678376
0.682885
0.688123
0.694152
0.701016
0.708718
0.717196
0.726299
0.735769
0.745257
0.754359
0.762675
0.769872
0.775719
0.780113
0.783026
0.784474
0.784474
0.783026
0.780113
0.775719
0.769872
0.762675
0.754359
0.745257
0.735769
0.726299
0.717196
0.708718
0.701016
0.694152
0.688123
0.682885
0.678376
0.674532
0.671291
0.6686
0.666415
0.664704
0.66344
0.662604
0.662187
0.662187
0.662604
0.66344
0.664704
0.666415
0.6686
0.671291
0.674532
0.678376
0.682885
0.688123
0.694152
0.701016
0.708718
0.717196
0.726299
0.735769
0.745257
0.754359
0.762675
0.769872
0.775719
0.780113
0.783026
0.784474
0.784585
0.783138
0.780226
0.775837
0.770002
0.762823
0.754535
0.745469
0.736018
0.726585
0.717517
0.709067
0.701386
0.694538
0.68852
0.683289
0.678785
0.674944
0.671704
0.669015
0.666832
0.665121
0.663857
0.663022
0.662604
0.662604
0.663022
0.663857
0.665121
0.666832
0.669015
0.671704
0.674944
0.678785
0.683289
0.68852
0.694538
0.701386
0.709067
0.717517
0.726585
0.736018
0.745469
0.754535
0.762823
0.770002
0.775837
0.780226
0.783138
0.784585
0.784807
0.78336
0.780452
0.776075
0.770263
0.763123
0.754893
0.745895
0.736521
0.727163
0.718161
0.709766
0.702129
0.695311
0.689314
0.684097
0.679603
0.675767
0.672532
0.669845
0.667664
0.665954
0.664691
0.663857
0.66344
0.66344
0.663857
0.664691
0.665954
0.667664
0.669845
0.672532
0.675767
0.679603
0.684097
0.689314
0.695311
0.702129
0.709766
0.718161
0.727163
0.736521
0.745895
0.754893
0.763123
0.770263
0.776075
0.780452
0.78336
0.784807
0.785144
0.783699
0.780799
0.776441
0.770666
0.763588
0.755444
0.746551
0.73729
0.728043
0.719142
0.710829
0.703254
0.696483
0.690517
0.685321
0.68084
0.677014
0.673785
0.671102
0.668923
0.667216
0.665954
0.665121
0.664704
0.664704
0.665121
0.665954
0.667216
0.668923
0.671102
0.673785
0.677014
0.68084
0.685321
0.690517
0.696483
0.703254
0.710829
0.719142
0.728043
0.73729
0.746551
0.755444
0.763588
0.770666
0.776441
0.780799
0.783699
0.785144
0.785605
0.784164
0.781277
0.776949
0.771228
0.764237
0.756209
0.747457
0.738347
0.729248
0.720477
0.712272
0.704781
0.698069
0.692145
0.686977
0.682515
0.678701
0.67548
0.672803
0.670628
0.668923
0.667664
0.666832
0.666415
0.666415
0.666832
0.667664
0.668923
0.670628
0.672803
0.67548
0.678701
0.682515
0.686977
0.692145
0.698069
0.704781
0.712272
0.720477
0.729248
0.738347
0.747457
0.756209
0.764237
0.771228
0.776949
0.781277
0.784164
0.785605
0.786199
0.784766
0.781901
0.777615
0.771968
0.765092
0.757214
0.748639
0.739718
0.730801
0.722191
0.71412
0.70673
0.700093
0.694221
0.689089
0.68465
0.680852
0.677642
0.674972
0.672803
0.671102
0.669845
0.669015
0.6686
0.6686
0.669015
0.669845
0.671102
0.672803
0.674972
0.677642
0.680852
0.68465
0.689089
0.694221
0.700093
0.70673
0.71412
0.722191
0.730801
0.739718
0.748639
0.757214
0.765092
0.771968
0.777615
0.781901
0.784766
0.786199
0.786936
0.785517
0.782684
0.77846
0.772911
0.76618
0.758488
0.750128
0.741432
0.732732
0.724314
0.716399
0.709131
0.702583
0.696773
0.691684
0.687275
0.683497
0.680301
0.677642
0.67548
0.673785
0.672532
0.671704
0.671291
0.671291
0.671704
0.672532
0.673785
0.67548
0.677642
0.680301
0.683497
0.687275
0.691684
0.696773
0.702583
0.709131
0.716399
0.724314
0.732732
0.741432
0.750128
0.758488
0.76618
0.772911
0.77846
0.782684
0.785517
0.786936
0.787825
0.786426
0.78364
0.779498
0.774079
0.767528
0.760061
0.751955
0.743523
0.735072
0.726875
0.719141
0.712014
0.70557
0.699835
0.694798
0.690425
0.686674
0.683497
0.680852
0.678701
0.677014
0.675767
0.674944
0.674532
0.674532
0.674944
0.675767
0.677014
0.678701
0.680852
0.683497
0.686674
0.690425
0.694798
0.699835
0.70557
0.712014
0.719141
0.726875
0.735072
0.743523
0.751955
0.760061
0.767528
0.774079
0.779498
0.78364
0.786426
0.787825
0.788864
0.787496
0.784776
0.780744
0.77549
0.769158
0.761957
0.754147
0.746017
0.737851
0.729904
0.722376
0.71541
0.709087
0.703441
0.698468
0.694142
0.690425
0.687275
0.68465
0.682515
0.68084
0.679603
0.678785
0.678376
0.678376
0.678785
0.679603
0.68084
0.682515
0.68465
0.687275
0.690425
0.694142
0.698468
0.703441
0.709087
0.71541
0.722376
0.729904
0.737851
0.746017
0.754147
0.761957
0.769158
0.77549
0.780744
0.784776
0.787496
0.788864
0.790043
0.788718
0.786086
0.782199
0.777149
0.771081
0.764192
0.756722
0.748933
0.741088
0.733422
0.726129
0.719348
0.713167
0.707627
0.702734
0.698468
0.694798
0.691684
0.689089
0.686977
0.685321
0.684097
0.683289
0.682885
0.682885
0.683289
0.684097
0.685321
0.686977
0.689089
0.691684
0.694798
0.698468
0.702734
0.707627
0.713167
0.719348
0.726129
0.733422
0.741088
0.748933
0.756722
0.764192
0.771081
0.777149
0.782199
0.786086
0.788718
0.790043
0.791332
0.790062
0.787547
0.783843
0.779044
0.773289
0.766761
0.759676
0.752273
0.744787
0.737438
0.73041
0.723842
0.717829
0.712419
0.707627
0.703441
0.699835
0.696773
0.694221
0.692145
0.690517
0.689314
0.68852
0.688123
0.688123
0.68852
0.689314
0.690517
0.692145
0.694221
0.696773
0.699835
0.703441
0.707627
0.712419
0.717829
0.723842
0.73041
0.737438
0.744787
0.752273
0.759676
0.766761
0.773289
0.779044
0.783843
0.787547
0.790062
0.791332
0.792676
0.79148
0.789113
0.785634
0.781136
0.775747
0.769633
0.762984
0.756011
0.748928
0.741935
0.735209
0.72889
0.723078
0.717829
0.713167
0.709087
0.70557
0.702583
0.700093
0.698069
0.696483
0.695311
0.694538
0.694152
0.694152
0.694538
0.695311
0.696483
0.698069
0.700093
0.702583
0.70557
0.709087
0.713167
0.717829
0.723078
0.72889
0.735209
0.741935
0.748928
0.756011
0.762984
0.769633
0.775747
0.781136
0.785634
0.789113
0.79148
0.792676
0.794002
0.792897
0.790712
0.787505
0.78336
0.778393
0.772747
0.766586
0.760094
0.753459
0.746867
0.740488
0.734461
0.72889
0.723842
0.719348
0.71541
0.712014
0.709131
0.70673
0.704781
0.703254
0.702129
0.701386
0.701016
0.701016
0.701386
0.702129
0.703254
0.704781
0.70673
0.709131
0.712014
0.71541
0.719348
0.723842
0.72889
0.734461
0.740488
0.746867
0.753459
0.760094
0.766586
0.772747
0.778393
0.78336
0.787505
0.790712
0.792897
0.794002
0.795218
0.794222
0.792254
0.789364
0.785625
0.781136
0.776013
0.770393
0.764432
0.758296
0.752156
0.746173
0.740488
0.735209
0.73041
0.726129
0.722376
0.719141
0.716399
0.71412
0.712272
0.710829
0.709766
0.709067
0.708718
0.708718
0.709067
0.709766
0.710829
0.712272
0.71412
0.716399
0.719141
0.722376
0.726129
0.73041
0.735209
0.740488
0.746173
0.752156
0.758296
0.764432
0.770393
0.776013
0.781136
0.785625
0.789364
0.792254
0.794222
0.795218
0.796227
0.795357
0.793637
0.791108
0.787825
0.783864
0.779315
0.774288
0.768909
0.763324
0.757688
0.752156
0.746867
0.741935
0.737438
0.733422
0.729904
0.726875
0.724314
0.722191
0.720477
0.719142
0.718161
0.717517
0.717196
0.717196
0.717517
0.718161
0.719142
0.720477
0.722191
0.724314
0.726875
0.729904
0.733422
0.737438
0.741935
0.746867
0.752156
0.757688
0.763324
0.768909
0.774288
0.779315
0.783864
0.787825
0.791108
0.793637
0.795357
0.796227
0.796942
0.796213
0.794769
0.792636
0.78985
0.786461
0.782531
0.77814
0.773389
0.768404
0.763324
0.758296
0.753459
0.748928
0.744787
0.741088
0.737851
0.735072
0.732732
0.730801
0.729248
0.728043
0.727163
0.726585
0.726299
0.726299
0.726585
0.727163
0.728043
0.729248
0.730801
0.732732
0.735072
0.737851
0.741088
0.744787
0.748928
0.753459
0.758296
0.763324
0.768404
0.773389
0.77814
0.782531
0.786461
0.78985
0.792636
0.794769
0.796213
0.796942
0.797304
0.796727
0.795578
0.793866
0.791607
0.788821
0.785541
0.781821
0.777735
0.773389
0.768909
0.764432
0.760094
0.756011
0.752273
0.748933
0.746017
0.743523
0.741432
0.739718
0.738347
0.73729
0.736521
0.736018
0.735769
0.735769
0.736018
0.736521
0.73729
0.738347
0.739718
0.741432
0.743523
0.746017
0.748933
0.752273
0.756011
0.760094
0.764432
0.768909
0.773389
0.777735
0.781821
0.785541
0.788821
0.791607
0.793866
0.795578
0.796727
0.797304
0.797296
0.796875
0.79603
0.794752
0.793031
0.790862
0.78825
0.785219
0.781821
0.77814
0.774288
0.770393
0.766586
0.762984
0.759676
0.756722
0.754147
0.751955
0.750128
0.748639
0.747457
0.746551
0.745895
0.745469
0.745257
0.745257
0.745469
0.745895
0.746551
0.747457
0.748639
0.750128
0.751955
0.754147
0.756722
0.759676
0.762984
0.766586
0.770393
0.774288
0.77814
0.781821
0.785219
0.78825
0.790862
0.793031
0.794752
0.79603
0.796875
0.797296
0.796949
0.796683
0.796137
0.795287
0.7941
0.792543
0.790594
0.78825
0.785541
0.782531
0.779315
0.776013
0.772747
0.769633
0.766761
0.764192
0.761957
0.760061
0.758488
0.757214
0.756209
0.755444
0.754893
0.754535
0.754359
0.754359
0.754535
0.754893
0.755444
0.756209
0.757214
0.758488
0.760061
0.761957
0.764192
0.766761
0.769633
0.772747
0.776013
0.779315
0.782531
0.785541
0.78825
0.790594
0.792543
0.7941
0.795287
0.796137
0.796683
0.796949
0.796335
0.796215
0.795953
0.795509
0.794828
0.793856
0.792543
0.790862
0.788821
0.786461
0.783864
0.781136
0.778393
0.775747
0.773289
0.771081
0.769158
0.767528
0.76618
0.765092
0.764237
0.763588
0.763123
0.762823
0.762675
0.762675
0.762823
0.763123
0.763588
0.764237
0.765092
0.76618
0.767528
0.769158
0.771081
0.773289
0.775747
0.778393
0.781136
0.783864
0.786461
0.788821
0.790862
0.792543
0.793856
0.794828
0.795509
0.795953
0.796215
0.796335
0.79556
0.795571
0.795564
0.795487
0.795267
0.794828
0.7941
0.793031
0.791607
0.78985
0.787825
0.785625
0.78336
0.781136
0.779044
0.777149
0.77549
0.774079
0.772911
0.771968
0.771228
0.770666
0.770263
0.770002
0.769872
0.769872
0.770002
0.770263
0.770666
0.771228
0.771968
0.772911
0.774079
0.77549
0.777149
0.779044
0.781136
0.78336
0.785625
0.787825
0.78985
0.791607
0.793031
0.7941
0.794828
0.795267
0.795487
0.795564
0.795571
0.79556
0.794745
0.794867
0.795076
0.795311
0.795487
0.795509
0.795287
0.794752
0.793866
0.792636
0.791108
0.789364
0.787505
0.785634
0.783843
0.782199
0.780744
0.779498
0.77846
0.777615
0.776949
0.776441
0.776075
0.775837
0.775719
0.775719
0.775837
0.776075
0.776441
0.776949
0.777615
0.77846
0.779498
0.780744
0.782199
0.783843
0.785634
0.787505
0.789364
0.791108
0.792636
0.793866
0.794752
0.795287
0.795509
0.795487
0.795311
0.795076
0.794867
0.794745
0.794011
0.794219
0.794597
0.795076
0.795564
0.795953
0.796137
0.79603
0.795578
0.794769
0.793637
0.792254
0.790712
0.789113
0.787547
0.786086
0.784776
0.78364
0.782684
0.781901
0.781277
0.780799
0.780452
0.780226
0.780113
0.780113
0.780226
0.780452
0.780799
0.781277
0.781901
0.782684
0.78364
0.784776
0.786086
0.787547
0.789113
0.790712
0.792254
0.793637
0.794769
0.795578
0.79603
0.796137
0.795953
0.795564
0.795076
0.794597
0.794219
0.794011
0.793459
0.793725
0.794219
0.794867
0.795571
0.796215
0.796683
0.796875
0.796727
0.796213
0.795357
0.794222
0.792897
0.79148
0.790062
0.788718
0.787496
0.786426
0.785517
0.784766
0.784164
0.783699
0.78336
0.783138
0.783026
0.783026
0.783138
0.78336
0.783699
0.784164
0.784766
0.785517
0.786426
0.787496
0.788718
0.790062
0.79148
0.792897
0.794222
0.795357
0.796213
0.796727
0.796875
0.796683
0.796215
0.795571
0.794867
0.794219
0.793725
0.793459
0.793164
0.793459
0.794011
0.794745
0.79556
0.796335
0.796949
0.797296
0.797304
0.796942
0.796227
0.795218
0.794002
0.792676
0.791332
0.790043
0.788864
0.787825
0.786936
0.786199
0.785605
0.785144
0.784807
0.784585
0.784474
0.784474
0.784585
0.784807
0.785144
0.785605
0.786199
0.786936
0.787825
0.788864
0.790043
0.791332
0.792676
0.794002
0.795218
0.796227
0.796942
0.797304
0.797296
0.796949
0.796335
0.79556
0.794745
0.794011
0.793459
0.793164
SCALARS HU float 1
LOOKUP_TABLE default
0.000226235
0.00058218
0.000652178
0.000258593
-0.000755076
-0.00250831
-0.00506765
-0.008427
-0.0124877
-0.017052
-0.0218357
-0.0264966
-0.0306802
-0.0340657
-0.036404
-0.0375403
-0.0374166
-0.0360607
-0.033565
-0.0300648
-0.0257174
-0.020688
-0.0151395
-0.00922817
-0.0031028
0.0031028
0.00922817
0.0151395
0.020688
0.0257174
0.0300648
0.033565
0.0360607
0.0374166
0.0375403
0.036404
0.0340657
0.0306802
0.0264966
0.0218357
0.017052
0.0124877
0.008427
0.00506765
0.00250831
0.000755076
-0.000258593
-0.000652178
-0.00058218
-0.000226235
0.000191124
0.000482973
0.000505987
9.08724e-005
-0.000914212
-0.00262871
-0.0051234
-0.0083981
-0.0123624
-0.0168268
-0.0215141
-0.0260889
-0.0302014
-0.0335335
-0.035839
-0.0369628
-0.0368467
-0.0355165
-0.033063
-0.0296187
-0.0253387
-0.020385
-0.0149187
-0.00909383
-0.00305759
0.00305759
0.00909383
0.0149187
0.020385
0.0253387
0.0296187
0.033063
0.0355165
0.0368467
0.0369628
0.035839
0.0335335
0.0302014
0.0260889
0.0215141
0.0168268
0.0123624
0.0083981
0.0051234
0.00262871
0.000914212
-9.08724e-005
-0.000505987
-0.000482973
-0.000191124
0.000126768
0.000300548
0.000236836
-0.000218953
-0.00120999
-0.0028562
-0.00523467
-0.00835701
-0.0121459
-0.0164265
-0.0209351
-0.0253478
-0.0293239
-0.0325519
-0.0347897
-0.0358841
-0.0357764
-0.0344902
-0.0321122
-0.0287711
-0.0246164
-0.0198062
-0.0144965
-0.00883699
-0.00297126
0.00297126
0.00883699
0.0144965
0.0198062
0.0246164
0.0287711
0.0321122
0.0344902
0.0357764
0.0358841
0.0347897
0.0325519
0.0293239
0.0253478
0.0209351
0.0164265
0.0121459
0.00835701
0.00523467
0.0028562
0.00120999
0.000218953
-0.000236836
-0.000300548
-0.000126768
4.33019e-005
6.4565e-005
-0.000112674
-0.000623505
-0.00160107
-0.0031648
-0.00540017
-0.00833083
-0.0118967
-0.01594
-0.0202135
-0.024408
-0.0281948
-0.0312733
-0.0334076
-0.0344489
-0.0343397
-0.0331017
-0.0308178
-0.0276101
-0.0236227
-0.0190065
-0.0139109
-0.00847997
-0.00285111
0.00285111
0.00847997
0.0139109
0.0190065
0.0236227
0.0276101
0.0308178
0.0331017
0.0343397
0.0344489
0.0334076
0.0312733
0.0281948
0.024408
0.0202135
0.01594
0.0118967
0.00833083
0.00540017
0.0031648
0.00160107
0.000623505
0.000112674
-6.4565e-005
-4.33019e-005
-4.51916e-005
-0.000187125
-0.000487443
-0.00106195
-0.00203348
-0.0035206
-0.00561435
-0.00835112
-0.0116854
-0.0154759
-0.0194917
-0.0234387
-0.0270029
-0.0298963
-0.0318934
-0.032853
-0.0327209
-0.0315192
-0.0293278
-0.0262634
-0.0224626
-0.0180681
-0.0132214
-0.00805842
-0.00270917
0.00270917
0.00805842
0.0132214
0.0180681
0.0224626
0.0262634
0.0293278
0.0315192
0.0327209
0.032853
0.0318934
0.0298963
0.0270029
0.0234387
0.0194917
0.0154759
0.0116854
0.00835112
0.00561435
0.0035206
0.00203348
0.00106195
0.000487443
0.000187125
4.51916e-005
-0.000124242
-0.000413225
-0.000828239
-0.00146922
-0.00244934
-0.00388415
-0.00586834
-0.00844515
-0.0115793
-0.0151413
-0.0189125
-0.022613
-0.0259436
-0.0286313
-0.0304643
-0.0313128
-0.0311294
-0.0299392
-0.0278205
-0.024886
-0.0212651
-0.0170926
-0.0125009
-0.00761651
-0.00256011
0.00256011
0.00761651
0.0125009
0.0170926
0.0212651
0.024886
0.0278205
0.0299392
0.0311294
0.0313128
0.0304643
0.0286313
0.0259436
0.022613
0.0189125
0.0151413
0.0115793
0.00844515
0.00586834
0.00388415
0.00244934
0.00146922
0.000828239
0.000413225
0.000124242
-0.000180832
-0.000576471
-0.00108132
-0.00178452
-0.00279239
-0.00421567
-0.0061468
-0.00862921
-0.0116293
-0.0150212
-0.0185932
-0.0220763
-0.0251855
-0.0276641
-0.0293177
-0.0300298
-0.0297647
-0.0285524
-0.0264734
-0.0236368
-0.0201668
-0.0161902
-0.0118302
-0.00720344
-0.00242037
0.00242037
0.00720344
0.0118302
0.0161902
0.0201668
0.0236368
0.0264734
0.0285524
0.0297647
0.0300298
0.0293177
0.0276641
0.0251855
0.0220763
0.0185932
0.0150212
0.0116293
0.00862921
0.0061468
0.00421567
0.00279239
0.00178452
0.00108132
0.000576471
0.000180832
-0.000203711
-0.000647069
-0.00120188
-0.00195688
-0.00301374
-0.00447639
-0.00642855
-0.00890382
-0.0118594
-0.0151642
-0.0186063
-0.0219233
-0.024843
-0.0271264
-0.0285972
-0.0291566
-0.0287819
-0.0275128
-0.0254321
-0.0226493
-0.0192837
-0.0154554
-0.011279
-0.00686191
-0.0023047
0.0023047
0.00686191
0.011279
0.0154554
0.0192837
0.0226493
0.0254321
0.0275128
0.0287819
0.0291566
0.0285972
0.0271264
0.024843
0.0219233
0.0186063
0.0151642
0.0118594
0.00890382
0.00642855
0.00447639
0.00301374
0.00195688
0.00120188
0.000647069
0.000203711
-0.000186465
-0.000604013
-0.00115918
-0.00194868
-0.00307444
-0.00463112
-0.00668574
-0.00925097
-0.0122637
-0.015577
-0.0189718
-0.0221876
-0.0249638
-0.0270779
-0.0283744
-0.0287737
-0.028269
-0.0269103
-0.0247868
-0.022008
-0.0186913
-0.0149512
-0.0108949
-0.0066216
-0.0022227
0.0022227
0.0066216
0.0108949
0.0149512
0.0186913
0.022008
0.0247868
0.0269103
0.028269
0.0287737
0.0283744
0.0270779
0.0249638
0.0221876
0.0189718
0.015577
0.0122637
0.00925097
0.00668574
0.00463112
0.00307444
0.00194868
0.00115918
0.000604013
0.000186465
-0.000124896
-0.000437821
-0.000936413
-0.0017377
-0.00294754
-0.00464937
-0.0068853
-0.0096368
-0.0128085
-0.0162279
-0.019661
-0.0228454
-0.0255291
-0.0275078
-0.0286466
-0.0288872
-0.028239
-0.026765
-0.0245609
-0.0217394
-0.0184154
-0.0147004
-0.0106958
-0.00649394
-0.00217888
0.00217888
0.00649394
0.0106958
0.0147004
0.0184154
0.0217394
0.0245609
0.026765
0.028239
0.0288872
0.0286466
0.0275078
0.0255291
0.0228454
0.019661
0.0162279
0.0128085
0.0096368
0.0068853
0.00464937
0.00294754
0.0017377
0.000936413
0.000437821
0.000124896
-2.01086e-005
-0.000148175
-0.000531462
-0.00131647
-0.00261794
-0.00450631
-0.00699297
-0.0100171
-0.0134409
-0.0170567
-0.0206086
-0.0238279
-0.0264708
-0.0283498
-0.0293521
-0.0294405
-0.0286433
-0.0270355
-0.0247213
-0.0218163
-0.0184361
-0.0146887
-0.0106722
-0.00647342
-0.00217095
0.00217095
0.00647342
0.0106722
0.0146887
0.0184361
0.0218163
0.0247213
0.0270355
0.0286433
0.0294405
0.0293521
0.0283498
0.0264708
0.0238279
0.0206086
0.0170567
0.0134409
0.0100171
0.00699297
0.00450631
0.00261794
0.00131647
0.000531462
0.000148175
2.01086e-005
0.000124948
0.000256056
4.56742e-005
-0.000690772
-0.00208222
-0.00418605
-0.0069774
-0.0103451
-0.0140995
-0.0179888
-0.0217294
-0.0250428
-0.0276912
-0.0295049
-0.0303932
-0.0303404
-0.0293935
-0.0276414
-0.025196
-0.0221772
-0.0187015
-0.0148757
-0.0107948
-0.00654252
-0.00219333
0.00219333
0.00654252
0.0107948
0.0148757
0.0187015
0.0221772
0.025196
0.0276414
0.0293935
0.0303404
0.0303932
0.0295049
0.0276912
0.0250428
0.0217294
0.0179888
0.0140995
0.0103451
0.0069774
0.00418605
0.00208222
0.000690772
-4.56742e-005
-0.000256056
-0.000124948
0.000304251
0.000759412
0.000775201
0.00012156
-0.00134935
-0.00368316
-0.00681572
-0.0105796
-0.0147251
-0.0189493
-0.0229354
-0.0263916
-0.0290859
-0.0308649
-0.0316605
-0.0314797
-0.0303874
-0.0284866
-0.0258977
-0.022745
-0.0191469
-0.0152094
-0.0110262
-0.00667843
-0.00223818
0.00223818
0.00667843
0.0110262
0.0152094
0.0191469
0.022745
0.0258977
0.0284866
0.0303874
0.0314797
0.0316605